Executable      : siesta
Version         : 5.2.1
Architecture    : x86_64
Compiler version: GNU-13.3.0
Compiler flags  : -march=nocona -mtune=haswell -ftree-vectorize -fPIC -fstack-protector-strong -fno-plt -O2 -ffunction-sections -pipe -isystem <prefix>/include -I<prefix>/_build_env/include -fdebug-prefix-map=<prefix>/work=/usr/local/src/conda/siesta-5.2.1 -fdebug-prefix-map=<prefix>=/usr/local/src/conda-prefix -I<prefix>/lib -fallow-argument-mismatch -O3
Parallelisations: none
NetCDF support
NetCDF-4 support
Lua support
DFT-D3 support

Runtime information:
* Directory : /home/samba/homes/convidat/proyecto3/optimization/run
* Running in serial mode.
>> Start of run:  18-JUN-2025   9:34:13

                           *********************** 
                           *  WELCOME TO SIESTA  * 
                           *********************** 

 NOTE: Siesta V5 introduces some new defaults for basis-set generation
 NOTE: which might lead to slightly different numerical results.
 NOTE: Please see the manual for full details and compatibility measures.


reinit: Reading from file optimization.fdf

reinit: -----------------------------------------------------------------------
reinit: System Name: 
reinit: -----------------------------------------------------------------------
reinit: System Label: optimization
reinit: -----------------------------------------------------------------------

initatom: Reading input for the pseudopotentials and atomic orbitals ----------
Species number:   1 Atomic number:    6 Label: C
Species number:   2 Atomic number:    7 Label: N
Species number:   3 Atomic number:    1 Label: H

Ground state valence configuration (from tables):   2s02  2p02  3d00  4f00
Ground state valence configuration (from tables):   2s02  2p03  3d00  4f00
Ground state valence configuration (from tables):   1s01  2p00  3d00  4f00

---- Processing specs for species: C
Reading pseudopotential information in PSML from:
  C.psml
PSML file version: 1.1
Using libxc ids:  101 130
GGA--PBE XC_GGA_X_PBE--XC_GGA_C_PBE pb
PSML uuid: 297821e0-be41-11e7-6802-e1ff7dfff095

---- Processing specs for species: N
Reading pseudopotential information in PSML from:
  N.psml
PSML file version: 1.1
Using libxc ids:  101 130
GGA--PBE XC_GGA_X_PBE--XC_GGA_C_PBE pb
PSML uuid: 31bde650-be41-11e7-78a7-66593edf4b14

---- Processing specs for species: H
Reading pseudopotential information in PSML from:
  H.psml
PSML file version: 1.1
Using libxc ids:  101 130
GGA--PBE XC_GGA_X_PBE--XC_GGA_C_PBE pb
PSML uuid: f95fa9b0-be40-11e7-634a-9594ffff953f

---- Pseudopotential check for C 

Pseudized shells:
2s( 2.00) rc: 1.20
2p( 2.00) rc: 1.26
Valence configuration for ps generation: 2s:2p: Total charge:   4.000000

---- Pseudopotential check for N 

Pseudized shells:
2s( 2.00) rc: 1.21
2p( 3.00) rc: 1.36
Valence configuration for ps generation: 2s:2p: Total charge:   5.000000

---- Pseudopotential check for H 

Pseudized shells:
1s( 1.00) rc: 1.01
2p( 0.00) rc: 0.71
Valence configuration for ps generation: 1s: Total charge:   1.000000
For C, standard SIESTA heuristics set lmxkb to 3
 (one more than the basis l, including polarization orbitals).
Use PS.lmax or PS.KBprojectors blocks to override.
For N, standard SIESTA heuristics set lmxkb to 3
 (one more than the basis l, including polarization orbitals).
Use PS.lmax or PS.KBprojectors blocks to override.
For H, standard SIESTA heuristics set lmxkb to 2
 (one more than the basis l, including polarization orbitals).
Use PS.lmax or PS.KBprojectors blocks to override.
C pseudopotential only contains V_ls up to l=1 -- lmxkb reset.
N pseudopotential only contains V_ls up to l=1 -- lmxkb reset.
H pseudopotential only contains V_ls up to l=1 -- lmxkb reset.

<basis_specs>
===============================================================================
C                    Z=   6    Mass=  12.011        Charge= 0.17977+309
Lmxo=2 Lmxkb= 1    BasisType=split      Semic=F
L=0  Nsemic=0  Cnfigmx=2
          i=1  nzeta=2  polorb=0  (2s)
            splnorm:   0.15000    
               vcte:    40.000    
               rinn:  -0.90000    
               qcoe:    0.0000    
               qyuk:    0.0000    
               qwid:   0.10000E-01
                rcs:    0.0000      0.0000    
            lambdas:    1.0000      1.0000    
L=1  Nsemic=0  Cnfigmx=2
          i=1  nzeta=2  polorb=1  (2p)  (to be polarized perturbatively)
            splnorm:   0.15000    
               vcte:    40.000    
               rinn:  -0.90000    
               qcoe:    0.0000    
               qyuk:    0.0000    
               qwid:   0.10000E-01
                rcs:    0.0000      0.0000    
            lambdas:    1.0000      1.0000    
L=2  Nsemic=0  Cnfigmx=3
          i=1  nzeta=0  polorb=0  (3d)  (perturbative polarization orbital) (from 2p)
-------------------------------------------------------------------------------
L=0  Nkbl=1  erefs: 0.17977+309
L=1  Nkbl=1  erefs: 0.17977+309
===============================================================================
</basis_specs>

Using PAO.SplitTailNorm
atom: Called for C                     (Z =   6)
NOTE: C pseudopotential has channels up to l= 1
NOTE: PAOs with higher l will be generated with V_local
Maximum radius (at nrval) set to   50.00000 8518

read_vps: Pseudopotential generation method:
read_vps: ONCVPSP-3.Hamann's oncvpsp                        
Valence charge in pseudo generation:    4.00000

read_vps: Pseudopotential includes a core correction:
read_vps: Pseudo-core for xc-correction

xc_check: Exchange-correlation functional:
xc_check: GGA Perdew, Burke & Ernzerhof 1996
Got Vlocal (oncv-fit) from psml data
Choosing vlocal chloc cutoff:  4.122282
qtot up to nchloc:    4.00001153
atom: Maximum radius for chlocal:    4.12228
atom: Maximum radius for r*vlocal+2*Zval:    4.12228
Reading KB projs from C psml data
Using scalar-relativistic projectors in PSML file

PSML: Kleinman-Bylander projectors: 
   l= 0   rc=  1.219773   Ekb= 12.963096
   l= 0   rc=  1.219773   Ekb=  0.771007
   l= 1   rc=  1.278952   Ekb= -8.399923
   l= 1   rc=  1.278952   Ekb= -1.755033

PSML: Total number of  Kleinman-Bylander projectors:   8
atom: -------------------------------------------------------------------------

atom: SANKEY-TYPE ORBITALS:
atom: Selected multiple-zeta basis: split     

SPLIT: Orbitals with angular momentum L= 0

SPLIT: Basis orbitals for state 2s

SPLIT: PAO cut-off radius determined from an
SPLIT: energy shift=  0.000735 Ry
Split based on tail norm

   izeta = 1
                 lambda =    1.000000
                     rc =    5.865727
                 energy =   -1.009782
                kinetic =    0.907850
    potential(screened) =   -1.917632
       potential(ionic) =   -5.443189

   izeta = 2
                 rmatch =    3.302919
              splitnorm =    0.150000
                 energy =   -0.812047
                kinetic =    1.580868
    potential(screened) =   -2.392915
       potential(ionic) =   -6.200698

SPLIT: Orbitals with angular momentum L= 1

SPLIT: Basis orbitals for state 2p

SPLIT: PAO cut-off radius determined from an
SPLIT: energy shift=  0.000735 Ry
Split based on tail norm

   izeta = 1
                 lambda =    1.000000
                     rc =    7.564822
                 energy =   -0.387582
                kinetic =    2.372253
    potential(screened) =   -2.759835
       potential(ionic) =   -6.120604

   izeta = 2
                 rmatch =    4.252389
              splitnorm =    0.150000
                 energy =   -0.314961
                kinetic =    3.225377
    potential(screened) =   -3.540338
       potential(ionic) =   -7.207912
*Note: V_local used for l= 2

** Using vlocal for PAOs with L= 2

POLgen: Perturbative polarization orbital with L=  2

POLgen: Polarization orbital for state 2p
*Note: V_local used for lpol= 2

** Using vlocal for PAOs with L= 2
Split based on tail norm

   izeta = 1
                     rc =    7.564822
                 energy =    0.923681
                kinetic =    1.875515
    potential(screened) =   -0.951834
       potential(ionic) =   -3.587740
atom: Total number of Sankey-type orbitals: 13

atm_pop: Valence configuration (for local Pseudopot. screening):
 2s( 2.00)                                                            
 2p( 2.00)                                                            
 3d( 0.00)                                                            
Vna: chval, zval:    4.00000   4.00000

Vna:  Cut-off radius for the neutral-atom potential:   7.564822
comcore: Pseudo-core radius Rcore=  1.671741

atom: _________________________________________________________________________

<basis_specs>
===============================================================================
N                    Z=   7    Mass=  14.007        Charge= 0.17977+309
Lmxo=2 Lmxkb= 1    BasisType=split      Semic=F
L=0  Nsemic=0  Cnfigmx=2
          i=1  nzeta=2  polorb=0  (2s)
            splnorm:   0.15000    
               vcte:    40.000    
               rinn:  -0.90000    
               qcoe:    0.0000    
               qyuk:    0.0000    
               qwid:   0.10000E-01
                rcs:    0.0000      0.0000    
            lambdas:    1.0000      1.0000    
L=1  Nsemic=0  Cnfigmx=2
          i=1  nzeta=2  polorb=1  (2p)  (to be polarized perturbatively)
            splnorm:   0.15000    
               vcte:    40.000    
               rinn:  -0.90000    
               qcoe:    0.0000    
               qyuk:    0.0000    
               qwid:   0.10000E-01
                rcs:    0.0000      0.0000    
            lambdas:    1.0000      1.0000    
L=2  Nsemic=0  Cnfigmx=3
          i=1  nzeta=0  polorb=0  (3d)  (perturbative polarization orbital) (from 2p)
-------------------------------------------------------------------------------
L=0  Nkbl=1  erefs: 0.17977+309
L=1  Nkbl=1  erefs: 0.17977+309
===============================================================================
</basis_specs>

Using PAO.SplitTailNorm
atom: Called for N                     (Z =   7)
NOTE: N pseudopotential has channels up to l= 1
NOTE: PAOs with higher l will be generated with V_local
Maximum radius (at nrval) set to   50.00000 8518

read_vps: Pseudopotential generation method:
read_vps: ONCVPSP-3.Hamann's oncvpsp                        
Valence charge in pseudo generation:    5.00000

read_vps: Pseudopotential includes a core correction:
read_vps: Pseudo-core for xc-correction

xc_check: Exchange-correlation functional:
xc_check: GGA Perdew, Burke & Ernzerhof 1996
Got Vlocal (oncv-fit) from psml data
Choosing vlocal chloc cutoff:  6.038618
qtot up to nchloc:    4.99995109
atom: Maximum radius for chlocal:    6.03862
atom: Maximum radius for r*vlocal+2*Zval:    6.03862
Reading KB projs from N psml data
Using scalar-relativistic projectors in PSML file

PSML: Kleinman-Bylander projectors: 
   l= 0   rc=  1.214864   Ekb= 14.989018
   l= 0   rc=  1.221004   Ekb=  1.272610
   l= 1   rc=  1.375180   Ekb= -8.587810
   l= 1   rc=  1.375180   Ekb= -2.013976

PSML: Total number of  Kleinman-Bylander projectors:   8
atom: -------------------------------------------------------------------------

atom: SANKEY-TYPE ORBITALS:
atom: Selected multiple-zeta basis: split     

SPLIT: Orbitals with angular momentum L= 0

SPLIT: Basis orbitals for state 2s

SPLIT: PAO cut-off radius determined from an
SPLIT: energy shift=  0.000735 Ry
Split based on tail norm

   izeta = 1
                 lambda =    1.000000
                     rc =    5.128853
                 energy =   -1.364951
                kinetic =    1.219328
    potential(screened) =   -2.584278
       potential(ionic) =   -8.061064

   izeta = 2
                 rmatch =    2.799004
              splitnorm =    0.150000
                 energy =   -1.108465
                kinetic =    2.068776
    potential(screened) =   -3.177241
       potential(ionic) =   -9.112461

SPLIT: Orbitals with angular momentum L= 1

SPLIT: Basis orbitals for state 2p

SPLIT: PAO cut-off radius determined from an
SPLIT: energy shift=  0.000735 Ry
Split based on tail norm

   izeta = 1
                 lambda =    1.000000
                     rc =    6.614864
                 energy =   -0.520217
                kinetic =    3.392575
    potential(screened) =   -3.912792
       potential(ionic) =   -9.170860

   izeta = 2
                 rmatch =    3.582433
              splitnorm =    0.150000
                 energy =   -0.423250
                kinetic =    4.550527
    potential(screened) =   -4.973778
       potential(ionic) =  -10.717060
*Note: V_local used for l= 2

** Using vlocal for PAOs with L= 2

POLgen: Perturbative polarization orbital with L=  2

POLgen: Polarization orbital for state 2p
*Note: V_local used for lpol= 2

** Using vlocal for PAOs with L= 2
Split based on tail norm

   izeta = 1
                     rc =    6.614864
                 energy =    1.365983
                kinetic =    2.607373
    potential(screened) =   -1.241390
       potential(ionic) =   -5.257349
atom: Total number of Sankey-type orbitals: 13

atm_pop: Valence configuration (for local Pseudopot. screening):
 2s( 2.00)                                                            
 2p( 3.00)                                                            
 3d( 0.00)                                                            
Vna: chval, zval:    5.00000   5.00000

Vna:  Cut-off radius for the neutral-atom potential:   6.614864
comcore: Pseudo-core radius Rcore=  1.572221

atom: _________________________________________________________________________

<basis_specs>
===============================================================================
H                    Z=   1    Mass=  1.0080        Charge= 0.17977+309
Lmxo=1 Lmxkb= 1    BasisType=split      Semic=F
L=0  Nsemic=0  Cnfigmx=1
          i=1  nzeta=2  polorb=1  (1s)  (to be polarized perturbatively)
            splnorm:   0.15000    
               vcte:    40.000    
               rinn:  -0.90000    
               qcoe:    0.0000    
               qyuk:    0.0000    
               qwid:   0.10000E-01
                rcs:    0.0000      0.0000    
            lambdas:    1.0000      1.0000    
L=1  Nsemic=0  Cnfigmx=2
          i=1  nzeta=0  polorb=0  (2p)  (perturbative polarization orbital) (from 1s)
-------------------------------------------------------------------------------
L=0  Nkbl=1  erefs: 0.17977+309
L=1  Nkbl=1  erefs: 0.17977+309
===============================================================================
</basis_specs>

Using PAO.SplitTailNorm
atom: Called for H                     (Z =   1)
Maximum radius (at nrval) set to   50.00000 8518

read_vps: Pseudopotential generation method:
read_vps: ONCVPSP-3.Hamann's oncvpsp                        
Valence charge in pseudo generation:    1.00000

xc_check: Exchange-correlation functional:
xc_check: GGA Perdew, Burke & Ernzerhof 1996
Got Vlocal (oncv-fit) from psml data
Choosing vlocal chloc cutoff:  1.926399
qtot up to nchloc:    0.99999831
atom: Maximum radius for chlocal:    1.92640
atom: Maximum radius for r*vlocal+2*Zval:    1.92640
Reading KB projs from H psml data
Using scalar-relativistic projectors in PSML file

PSML: Kleinman-Bylander projectors: 
   l= 0   rc=  1.022342   Ekb= -3.402247
   l= 0   rc=  1.022342   Ekb= -1.068968
   l= 1   rc=  0.714575   Ekb= -1.006642

PSML: Total number of  Kleinman-Bylander projectors:   5
atom: -------------------------------------------------------------------------

atom: SANKEY-TYPE ORBITALS:
atom: Selected multiple-zeta basis: split     

SPLIT: Orbitals with angular momentum L= 0

SPLIT: Basis orbitals for state 1s

SPLIT: PAO cut-off radius determined from an
SPLIT: energy shift=  0.000735 Ry
Split based on tail norm

   izeta = 1
                 lambda =    1.000000
                     rc =    7.238756
                 energy =   -0.476315
                kinetic =    0.887622
    potential(screened) =   -1.363936
       potential(ionic) =   -1.882865

   izeta = 2
                 rmatch =    4.044510
              splitnorm =    0.150000
                 energy =   -0.376652
                kinetic =    1.480380
    potential(screened) =   -1.857033
       potential(ionic) =   -2.405174

POLgen: Perturbative polarization orbital with L=  1

POLgen: Polarization orbital for state 1s
Split based on tail norm

   izeta = 1
                     rc =    7.238756
                 energy =    0.508786
                kinetic =    1.081322
    potential(screened) =   -0.572537
       potential(ionic) =   -1.035092
atom: Total number of Sankey-type orbitals:  5

atm_pop: Valence configuration (for local Pseudopot. screening):
 1s( 1.00)                                                            
 2p( 0.00)                                                            
Vna: chval, zval:    1.00000   1.00000

Vna:  Cut-off radius for the neutral-atom potential:   7.238756

atom: _________________________________________________________________________

prinput: Basis input 

PAO.BasisType split     

%block ChemicalSpeciesLabel
    1    6 C                       # Species index, atomic number, species label
    2    7 N                       # Species index, atomic number, species label
    3    1 H                       # Species index, atomic number, species label
%endblock ChemicalSpeciesLabel

%block PAO.Basis                 # Define Basis set
# WARNING: This information might be incomplete!
C                     2                    # Species label, number of l-shells
 n=2   0   2                         # n, l, Nzeta 
   5.866      3.303   
   1.000      1.000   
 n=2   1   2 P   1                   # n, l, Nzeta, Polarization, NzetaPol
   7.565      4.252   
   1.000      1.000   
N                     2                    # Species label, number of l-shells
 n=2   0   2                         # n, l, Nzeta 
   5.129      2.799   
   1.000      1.000   
 n=2   1   2 P   1                   # n, l, Nzeta, Polarization, NzetaPol
   6.615      3.582   
   1.000      1.000   
H                     1                    # Species label, number of l-shells
 n=1   0   2 P   1                   # n, l, Nzeta, Polarization, NzetaPol
   7.239      4.045   
   1.000      1.000   
%endblock PAO.Basis

prinput: ----------------------------------------------------------------------

Dumping basis to NetCDF file C.ion.nc
Dumping basis to NetCDF file N.ion.nc
Dumping basis to NetCDF file H.ion.nc
coor:   Atomic-coordinates input format  =     Cartesian coordinates
coor:                                          (in Angstroms)

siesta: Atomic coordinates (Bohr) and species
siesta:     -1.90755   3.23941   0.00651  1        1
siesta:      0.64745   4.60007   0.00755  1        2
siesta:      2.66900   2.69498   0.03342  2        3
siesta:      2.31085  -2.25659  -0.01324  1        4
siesta:      0.59617  -4.28750  -0.02832  1        5
siesta:     -2.00474  -3.85209  -0.01203  1        6
siesta:     -2.91931  -1.36761  -0.00334  1        7
siesta:     -1.19722   0.68490  -0.00149  1        8
siesta:      1.44920   0.25005   0.00301  1        9
siesta:     -4.51880   4.34225   0.01272  1       10
siesta:      0.63451   6.48999   0.01261  3       11
siesta:      4.55758   2.74619   0.07594  3       12
siesta:     -4.78440  -1.06272   0.00127  3       13
siesta:     -3.20481  -5.31148  -0.00634  3       14
siesta:      1.23593  -6.06560  -0.05179  3       15
siesta:      4.16826  -2.60020  -0.01407  3       16
siesta:     -6.92591   4.44012  -3.87934  1       17
siesta:     -4.61385   6.74090  -1.49471  1       18
siesta:     -6.14449   8.97463  -4.49359  1       19
siesta:     -6.40748   6.90349  -2.57628  2       20
siesta:     -7.43137   2.98350  -2.45380  3       21
siesta:     -8.53343   4.61969  -5.21946  3       22
siesta:     -5.24480   3.75685  -4.93781  3       23
siesta:     -5.71840  10.78504  -3.51878  3       24
siesta:     -4.57263   8.57207  -5.82758  3       25
siesta:     -7.91181   9.23301  -5.59957  3       26
siesta:     -5.72319   3.09159  -0.73317  3       27
siesta:     -5.03500   4.70683   1.79364  3       28
siesta:     -4.61026   8.32751  -0.46820  3       29
siesta:     -3.30485   6.88222  -2.85030  3       30

siesta: System type = molecule  

initatomlists: Number of atoms, orbitals, and projectors:     30   262   192

coxmol: Writing XMOL coordinates into file optimization.xyz                                                                                                                                                                                                                    

siesta: ******************** Simulation parameters ****************************
siesta:
siesta: The following are some of the parameters of the simulation.
siesta: A complete list of the parameters used, including default values,
siesta: can be found in file out.fdf
siesta:
redata: Spin configuration                          = none
redata: Number of spin components                   = 1
redata: Time-Reversal Symmetry                      = T
redata: Spin spiral                                 = F
redata: Long output                                 =   F
redata: Number of Atomic Species                    =        3
redata: Charge density info will appear in .RHO file
redata: Write Mulliken charges (when)               = none
redata: Write Mulliken Pop.                         = NO
redata: Write Hirshfeld charges (when)              = none
redata: Write Voronoi charges (when)                = none
redata: Write spin charge (when)                    = none
redata: Matel table size (NRTAB)                    =     1024
redata: Mesh Cutoff                                 =   300.0000 Ry
redata: Net charge of the system                    =     0.0000 |e|
redata: Min. number of SCF Iter                     =        0
redata: Max. number of SCF Iter                     =     1000
redata: SCF convergence failure will abort job
redata: SCF mix quantity                            = Hamiltonian
redata: Mix DM or H after convergence               =   F
redata: Recompute H after scf cycle                 =   F
redata: Mix DM in first SCF step                    =   T
redata: Write Pulay info on disk                    =   F
redata: New DM Occupancy tolerance                  = 0.000000000001
redata: No kicks to SCF
redata: DM Mixing Weight for Kicks                  =     0.5000
redata: Require Harris convergence for SCF          =   F
redata: Harris energy tolerance for SCF             =     0.000100 eV
redata: Require DM convergence for SCF              =   T
redata: DM tolerance for SCF                        =     0.000100
redata: Require EDM convergence for SCF             =   F
redata: EDM tolerance for SCF                       =     0.001000 eV
redata: Require H convergence for SCF               =   T
redata: Hamiltonian tolerance for SCF               =     0.001000 eV
redata: Require (free) Energy convergence for SCF   =   F
redata: (free) Energy tolerance for SCF             =     0.000100 eV
redata: Using DFT-D3 dispersion                     =   F
redata: Using Saved Data (generic)                  =   F
redata: Use continuation files for DM               =   T
redata: Neglect nonoverlap interactions             =   F
redata: Method of Calculation                       = Diagonalization
redata: Electronic Temperature                      =   299.9863 K
redata: Fix the spin of the system                  =   F
redata: Max. number of TDED Iter                    =        1
redata: Number of TDED substeps                     =        3
redata: Dynamics option                             = CG coord. optimization
redata: Variable cell                               =   F
redata: Use continuation files for CG               =   F
redata: Max atomic displ per move                   =     0.1058 Ang
redata: Maximum number of optimization moves        =      400
redata: Force tolerance                             =     0.0050 eV/Ang
mix.SCF: Pulay mixing                            = Pulay
mix.SCF:    Variant                              = stable
mix.SCF:    History steps                        = 2
mix.SCF:    Linear mixing weight                 =     0.250000
mix.SCF:    Mixing weight                        =     0.250000
mix.SCF:    SVD condition                        = 0.1000E-07
redata: Save all siesta data in one NC              =   F
redata: ***********************************************************************

%block SCF.Mixers
  Pulay
%endblock SCF.Mixers

%block SCF.Mixer.Pulay
  # Mixing method
  method pulay
  variant stable

  # Mixing options
  weight 0.2500
  weight.linear 0.2500
  history 2
%endblock SCF.Mixer.Pulay

DM_history_depth set to one: no extrapolation allowed by default for geometry relaxation
Size of DM history Fstack: 1
Total number of electrons:    74.000000
Total ionic charge:    74.000000

siesta: k-grid: Number of k-points = 1
siesta: k-point is Gamma-only

diag: Algorithm                                     = D&C
diag: Used triangular part                          = Lower
diag: Absolute tolerance                            =  0.100E-15
diag: Orthogonalization factor                      =  0.100E-05
diag: Memory factor                                 =  1.0000


ts: **************************************************************
ts: Save H and S matrices                           =    F
ts: Save DM and EDM matrices                        =    F
ts: Only save the overlap matrix S                  =    F
ts: **************************************************************

************************ Begin: TS CHECKS AND WARNINGS ************************
************************ End: TS CHECKS AND WARNINGS **************************


                     ====================================
                        Begin CG opt. move =      0
                     ====================================

outcell: Unit cell vectors (Ang):
       16.927466    0.000000    0.000000
        0.000000   18.916973    0.000000
        0.000000    0.000000   14.032973

outcell: Cell vector modules (Ang)   :   16.927466   18.916973   14.032973
outcell: Cell angles (23,13,12) (deg):     90.0000     90.0000     90.0000
outcell: Cell volume (Ang**3)        :   4493.5883
<dSpData1D:S at geom step 0
  <sparsity:sparsity for geom step 0
    nrows_g=262 nrows=262 sparsity=.9073 nnzs=62278, refcount: 7>
  <dData1D:(new from dSpData1D) n=62278, refcount: 1>
refcount: 1>
new_DM -- step:     1
Initializing Density Matrix...

Attempting to read DM from file... Failed...
DM filled with atomic data:
<dSpData2D:DM initialized from atoms
  <sparsity:sparsity for geom step 0
    nrows_g=262 nrows=262 sparsity=.9073 nnzs=62278, refcount: 8>
  <dData2D:DM n=62278 m=1, refcount: 1>
refcount: 1>
No. of atoms with KB's overlaping orbs in proc 0. Max # of overlaps:      30     202

InitMesh: MESH = 180 x 200 x 150 = 5400000
InitMesh: Mesh cutoff (required, used) =   300.000   308.929 Ry
New grid distribution [1]: sub = 2

stepf: Fermi-Dirac step function

siesta: Program's energy decomposition (eV):
siesta: Ebs     =      -650.799299
siesta: Eions   =      4783.810632
siesta: Ena     =      1347.144025
siesta: Ekin    =      2130.539363
siesta: Enl     =      -183.518878
siesta: Eso     =         0.000000
siesta: Edftu   =         0.000000
siesta: DEna    =      -248.605777
siesta: DUscf   =        36.455444
siesta: DUext   =         0.000000
siesta: Ex      =      -971.114125
siesta: Ec      =       -86.383304
siesta: Exc     =     -1057.497428
siesta: EbV     =         0.000000
siesta: eta*DQ  =         0.000000
siesta: Emadel  =         0.000000
siesta: Emeta   =         0.000000
siesta: Emolmec =         0.000000
siesta: Ekinion =         0.000000
siesta: Eharris =     -2717.759547
siesta: Etot    =     -2759.293884
siesta: FreeEng =     -2759.293884

        iscf     Eharris(eV)        E_KS(eV)     FreeEng(eV)     dDmax    Ef(eV) dHmax(eV)
   scf:    1    -2717.759547    -2759.293884    -2759.293884  1.950388 -7.497492 15.030751
timer: Routine,Calls,Time,% = IterSCF        1       4.016  27.72
   scf:    2    -2774.941043    -2768.452008    -2768.452008  0.286332 -6.307546  6.597496
   scf:    3    -2772.216326    -2771.006224    -2771.006224  0.178354 -3.685310  1.442291
   scf:    4    -2771.251641    -2771.152549    -2771.152549  0.046253 -3.555158  0.657083
   scf:    5    -2771.223123    -2771.191962    -2771.191962  0.022111 -3.528140  0.302117
   scf:    6    -2771.208023    -2771.200902    -2771.200902  0.014455 -3.478022  0.109176
   scf:    7    -2771.203153    -2771.202167    -2771.202167  0.007187 -3.440711  0.038832
   scf:    8    -2771.202424    -2771.202309    -2771.202309  0.002471 -3.425332  0.010746
   scf:    9    -2771.202387    -2771.202350    -2771.202350  0.000386 -3.423471  0.006235
   scf:   10    -2771.202387    -2771.202370    -2771.202370  0.000424 -3.422606  0.002784
   scf:   11    -2771.202375    -2771.202373    -2771.202373  0.000179 -3.422747  0.001617
   scf:   12    -2771.202373    -2771.202373    -2771.202373  0.000130 -3.422945  0.000736
   scf:   13    -2771.202373    -2771.202373    -2771.202373  0.000043 -3.423042  0.000391

SCF Convergence by DM+H criterion
max |DM_out - DM_in|         :     0.0000431395
max |H_out - H_in|      (eV) :     0.0003906213
SCF cycle converged after 13 iterations

Using DM_out to compute the final energy and forces
No. of atoms with KB's overlaping orbs in proc 0. Max # of overlaps:      30     202

siesta: E_KS(eV) =            -2771.2024

siesta: E_KS - E_eggbox =     -2771.2024

siesta: Atomic forces (eV/Ang):
----------------------------------------
   Tot   -0.010691   -0.006796   -0.000082
----------------------------------------
   Max   29.941076
   Res    5.348491    sqrt( Sum f_i^2 / 3N )
----------------------------------------
   Max   29.941076    constrained

Stress tensor Voigt[x,y,z,yz,xz,xy] (kbar):      -18.94       -7.48       -9.61       -1.06       -6.86        1.31
(Free)E + p*V (eV/cell)    -2737.5238
Target enthalpy (eV/cell)    -2771.2024

                     ====================================
                        Begin CG opt. move =      1
                     ====================================

outcell: Unit cell vectors (Ang):
       16.927466    0.000000    0.000000
        0.000000   18.916973    0.000000
        0.000000    0.000000   14.032973

outcell: Cell vector modules (Ang)   :   16.927466   18.916973   14.032973
outcell: Cell angles (23,13,12) (deg):     90.0000     90.0000     90.0000
outcell: Cell volume (Ang**3)        :   4493.5883
<dSpData1D:S at geom step 1
  <sparsity:sparsity for geom step 1
    nrows_g=262 nrows=262 sparsity=.9055 nnzs=62156, refcount: 7>
  <dData1D:(new from dSpData1D) n=62156, refcount: 1>
refcount: 1>
new_DM -- step:     2
Re-using DM from previous geometries...
Number of DMs in history: 1
 DM extrapolation coefficients: 
1   1.00000
New DM after history re-use:
<dSpData2D:SpM extrapolated using coords
  <sparsity:sparsity for geom step 1
    nrows_g=262 nrows=262 sparsity=.9055 nnzs=62156, refcount: 9>
  <dData2D:(temp array for extrapolation) n=62156 m=1, refcount: 1>
refcount: 1>
No. of atoms with KB's overlaping orbs in proc 0. Max # of overlaps:      30     201

InitMesh: MESH = 180 x 200 x 150 = 5400000
InitMesh: Mesh cutoff (required, used) =   300.000   308.929 Ry
New grid distribution [1]: sub = 2

        iscf     Eharris(eV)        E_KS(eV)     FreeEng(eV)     dDmax    Ef(eV) dHmax(eV)
   scf:    1    -2776.538240    -2774.952387    -2774.952387  0.459583 -3.224945  1.133563
   scf:    2    -2774.432411    -2774.827040    -2774.827040  0.057821 -2.864041  2.070885
   scf:    3    -2775.061795    -2775.004890    -2775.004890  0.034088 -2.360120  0.089047
   scf:    4    -2775.005926    -2775.005442    -2775.005442  0.001499 -2.365295  0.050621
   scf:    5    -2775.005886    -2775.005701    -2775.005701  0.001937 -2.370575  0.010104
   scf:    6    -2775.005724    -2775.005713    -2775.005713  0.000440 -2.371547  0.005036
   scf:    7    -2775.005721    -2775.005717    -2775.005717  0.000407 -2.372666  0.002164
   scf:    8    -2775.005719    -2775.005718    -2775.005718  0.000139 -2.373099  0.001271
   scf:    9    -2775.005719    -2775.005718    -2775.005718  0.000128 -2.373447  0.000603
   scf:   10    -2775.005718    -2775.005718    -2775.005718  0.000043 -2.373514  0.000407

SCF Convergence by DM+H criterion
max |DM_out - DM_in|         :     0.0000432135
max |H_out - H_in|      (eV) :     0.0004067222
SCF cycle converged after 10 iterations

Using DM_out to compute the final energy and forces
No. of atoms with KB's overlaping orbs in proc 0. Max # of overlaps:      30     201

siesta: E_KS(eV) =            -2775.0057

siesta: Atomic forces (eV/Ang):
----------------------------------------
   Tot   -0.008843   -0.010882   -0.002378
----------------------------------------
   Max   12.730373
   Res    2.688515    sqrt( Sum f_i^2 / 3N )
----------------------------------------
   Max   12.730373    constrained

Stress tensor Voigt[x,y,z,yz,xz,xy] (kbar):      -12.86       -7.41       -7.85       -0.85       -3.99        0.90
(Free)E + p*V (eV/cell)    -2748.7137
Target enthalpy (eV/cell)    -2775.0057

                     ====================================
                        Begin CG opt. move =      2
                     ====================================

outcell: Unit cell vectors (Ang):
       16.927466    0.000000    0.000000
        0.000000   18.916973    0.000000
        0.000000    0.000000   14.032973

outcell: Cell vector modules (Ang)   :   16.927466   18.916973   14.032973
outcell: Cell angles (23,13,12) (deg):     90.0000     90.0000     90.0000
outcell: Cell volume (Ang**3)        :   4493.5883
<dSpData1D:S at geom step 2
  <sparsity:sparsity for geom step 2
    nrows_g=262 nrows=262 sparsity=.9093 nnzs=62418, refcount: 7>
  <dData1D:(new from dSpData1D) n=62418, refcount: 1>
refcount: 1>
new_DM -- step:     3
Re-using DM from previous geometries...
Number of DMs in history: 1
 DM extrapolation coefficients: 
1   1.00000
New DM after history re-use:
<dSpData2D:SpM extrapolated using coords
  <sparsity:sparsity for geom step 2
    nrows_g=262 nrows=262 sparsity=.9093 nnzs=62418, refcount: 9>
  <dData2D:(temp array for extrapolation) n=62418 m=1, refcount: 1>
refcount: 1>
No. of atoms with KB's overlaping orbs in proc 0. Max # of overlaps:      30     202

InitMesh: MESH = 180 x 200 x 150 = 5400000
InitMesh: Mesh cutoff (required, used) =   300.000   308.929 Ry
New grid distribution [1]: sub = 2

        iscf     Eharris(eV)        E_KS(eV)     FreeEng(eV)     dDmax    Ef(eV) dHmax(eV)
   scf:    1    -2778.581096    -2776.987119    -2776.987119  0.362543 -3.462353  0.839560
   scf:    2    -2776.283255    -2776.827798    -2776.827798  0.030956 -3.894238  1.888170
   scf:    3    -2777.148778    -2777.076507    -2777.076507  0.019638 -3.483865  0.114084
   scf:    4    -2777.079825    -2777.078291    -2777.078291  0.001858 -3.489129  0.058949
   scf:    5    -2777.079470    -2777.078979    -2777.078979  0.002112 -3.491992  0.023038
   scf:    6    -2777.079043    -2777.079013    -2777.079013  0.000656 -3.491535  0.011646
   scf:    7    -2777.079029    -2777.079022    -2777.079022  0.000520 -3.491105  0.002503
   scf:    8    -2777.079024    -2777.079023    -2777.079023  0.000096 -3.491062  0.001436
   scf:    9    -2777.079024    -2777.079024    -2777.079024  0.000104 -3.491063  0.000567
   scf:   10    -2777.079024    -2777.079024    -2777.079024  0.000039 -3.491077  0.000277

SCF Convergence by DM+H criterion
max |DM_out - DM_in|         :     0.0000386916
max |H_out - H_in|      (eV) :     0.0002771830
SCF cycle converged after 10 iterations

Using DM_out to compute the final energy and forces
No. of atoms with KB's overlaping orbs in proc 0. Max # of overlaps:      30     202

siesta: E_KS(eV) =            -2777.0790

siesta: Atomic forces (eV/Ang):
----------------------------------------
   Tot    0.000546   -0.008972   -0.000133
----------------------------------------
   Max    4.113301
   Res    1.364859    sqrt( Sum f_i^2 / 3N )
----------------------------------------
   Max    4.113301    constrained

Stress tensor Voigt[x,y,z,yz,xz,xy] (kbar):       -7.68       -7.86       -6.55       -0.25       -1.89        0.58
(Free)E + p*V (eV/cell)    -2756.4265
Target enthalpy (eV/cell)    -2777.0790

                     ====================================
                        Begin CG opt. move =      3
                     ====================================

outcell: Unit cell vectors (Ang):
       16.927466    0.000000    0.000000
        0.000000   18.916973    0.000000
        0.000000    0.000000   14.032973

outcell: Cell vector modules (Ang)   :   16.927466   18.916973   14.032973
outcell: Cell angles (23,13,12) (deg):     90.0000     90.0000     90.0000
outcell: Cell volume (Ang**3)        :   4493.5883
<dSpData1D:S at geom step 3
  <sparsity:sparsity for geom step 3
    nrows_g=262 nrows=262 sparsity=.9105 nnzs=62502, refcount: 7>
  <dData1D:(new from dSpData1D) n=62502, refcount: 1>
refcount: 1>
new_DM -- step:     4
Re-using DM from previous geometries...
Number of DMs in history: 1
 DM extrapolation coefficients: 
1   1.00000
New DM after history re-use:
<dSpData2D:SpM extrapolated using coords
  <sparsity:sparsity for geom step 3
    nrows_g=262 nrows=262 sparsity=.9105 nnzs=62502, refcount: 9>
  <dData2D:(temp array for extrapolation) n=62502 m=1, refcount: 1>
refcount: 1>
Note: For starting DM, Qtot, Tr[D*S] =         74.00000000         73.86273174
No. of atoms with KB's overlaping orbs in proc 0. Max # of overlaps:      30     202

InitMesh: MESH = 180 x 200 x 150 = 5400000
InitMesh: Mesh cutoff (required, used) =   300.000   308.929 Ry
New grid distribution [1]: sub = 2

        iscf     Eharris(eV)        E_KS(eV)     FreeEng(eV)     dDmax    Ef(eV) dHmax(eV)
   scf:    1    -2776.872007    -2776.611228    -2776.611228  0.178707 -2.968650  1.654362
   scf:    2    -2774.580198    -2776.127166    -2776.127166  0.086189 -2.924435  3.611163
   scf:    3    -2777.045923    -2776.825722    -2776.825722  0.060813 -3.346234  0.097163
   scf:    4    -2776.828672    -2776.827335    -2776.827335  0.001609 -3.359909  0.048500
   scf:    5    -2776.828261    -2776.827870    -2776.827870  0.002004 -3.369098  0.022692
   scf:    6    -2776.827953    -2776.827916    -2776.827916  0.000895 -3.371142  0.011261
   scf:    7    -2776.827932    -2776.827925    -2776.827925  0.000590 -3.372265  0.002947
   scf:    8    -2776.827928    -2776.827926    -2776.827926  0.000201 -3.372673  0.001571
   scf:    9    -2776.827927    -2776.827927    -2776.827927  0.000111 -3.372910  0.000758
   scf:   10    -2776.827927    -2776.827927    -2776.827927  0.000046 -3.372975  0.000639

SCF Convergence by DM+H criterion
max |DM_out - DM_in|         :     0.0000459858
max |H_out - H_in|      (eV) :     0.0006388580
SCF cycle converged after 10 iterations

Using DM_out to compute the final energy and forces
No. of atoms with KB's overlaping orbs in proc 0. Max # of overlaps:      30     202

siesta: E_KS(eV) =            -2776.8279

siesta: Atomic forces (eV/Ang):
----------------------------------------
   Tot    0.002545   -0.001743    0.001875
----------------------------------------
   Max    4.698316
   Res    1.433333    sqrt( Sum f_i^2 / 3N )
----------------------------------------
   Max    4.698316    constrained

Stress tensor Voigt[x,y,z,yz,xz,xy] (kbar):       -5.44       -8.79       -5.96        0.52       -1.26        0.40
(Free)E + p*V (eV/cell)    -2757.9536
Target enthalpy (eV/cell)    -2776.8279

                     ====================================
                        Begin CG opt. move =      4
                     ====================================

outcell: Unit cell vectors (Ang):
       16.927466    0.000000    0.000000
        0.000000   18.916973    0.000000
        0.000000    0.000000   14.032973

outcell: Cell vector modules (Ang)   :   16.927466   18.916973   14.032973
outcell: Cell angles (23,13,12) (deg):     90.0000     90.0000     90.0000
outcell: Cell volume (Ang**3)        :   4493.5883
<dSpData1D:S at geom step 4
  <sparsity:sparsity for geom step 4
    nrows_g=262 nrows=262 sparsity=.9093 nnzs=62416, refcount: 7>
  <dData1D:(new from dSpData1D) n=62416, refcount: 1>
refcount: 1>
new_DM -- step:     5
Re-using DM from previous geometries...
Number of DMs in history: 1
 DM extrapolation coefficients: 
1   1.00000
New DM after history re-use:
<dSpData2D:SpM extrapolated using coords
  <sparsity:sparsity for geom step 4
    nrows_g=262 nrows=262 sparsity=.9093 nnzs=62416, refcount: 9>
  <dData2D:(temp array for extrapolation) n=62416 m=1, refcount: 1>
refcount: 1>
No. of atoms with KB's overlaping orbs in proc 0. Max # of overlaps:      30     202

InitMesh: MESH = 180 x 200 x 150 = 5400000
InitMesh: Mesh cutoff (required, used) =   300.000   308.929 Ry
New grid distribution [1]: sub = 2

        iscf     Eharris(eV)        E_KS(eV)     FreeEng(eV)     dDmax    Ef(eV) dHmax(eV)
   scf:    1    -2776.719025    -2777.122393    -2777.122393  0.100737 -3.650091  0.657563
   scf:    2    -2776.723881    -2777.030312    -2777.030312  0.029439 -3.173417  1.333366
   scf:    3    -2777.212893    -2777.169165    -2777.169165  0.020490 -3.453480  0.057532
   scf:    4    -2777.170032    -2777.169637    -2777.169637  0.000955 -3.445600  0.030629
   scf:    5    -2777.169916    -2777.169797    -2777.169797  0.001069 -3.440959  0.010215
   scf:    6    -2777.169823    -2777.169811    -2777.169811  0.000457 -3.440262  0.005225
   scf:    7    -2777.169816    -2777.169814    -2777.169814  0.000328 -3.439899  0.001326
   scf:    8    -2777.169815    -2777.169814    -2777.169814  0.000087 -3.439797  0.000704

SCF Convergence by DM+H criterion
max |DM_out - DM_in|         :     0.0000870076
max |H_out - H_in|      (eV) :     0.0007044309
SCF cycle converged after 8 iterations

Using DM_out to compute the final energy and forces
No. of atoms with KB's overlaping orbs in proc 0. Max # of overlaps:      30     202

siesta: E_KS(eV) =            -2777.1698

siesta: Atomic forces (eV/Ang):
----------------------------------------
   Tot    0.001910   -0.005730    0.000074
----------------------------------------
   Max    4.214211
   Res    1.317126    sqrt( Sum f_i^2 / 3N )
----------------------------------------
   Max    4.214211    constrained

Stress tensor Voigt[x,y,z,yz,xz,xy] (kbar):       -6.48       -8.20       -6.27        0.06       -1.50        0.50
(Free)E + p*V (eV/cell)    -2757.5908
Target enthalpy (eV/cell)    -2777.1698

cgvc: Finished line minimization    1.  Mean atomic displacement =    0.1155

                     ====================================
                        Begin CG opt. move =      5
                     ====================================

outcell: Unit cell vectors (Ang):
       16.927466    0.000000    0.000000
        0.000000   18.916973    0.000000
        0.000000    0.000000   14.032973

outcell: Cell vector modules (Ang)   :   16.927466   18.916973   14.032973
outcell: Cell angles (23,13,12) (deg):     90.0000     90.0000     90.0000
outcell: Cell volume (Ang**3)        :   4493.5883
<dSpData1D:S at geom step 5
  <sparsity:sparsity for geom step 5
    nrows_g=262 nrows=262 sparsity=.9096 nnzs=62438, refcount: 7>
  <dData1D:(new from dSpData1D) n=62438, refcount: 1>
refcount: 1>
new_DM -- step:     6
Re-using DM from previous geometries...
Number of DMs in history: 1
 DM extrapolation coefficients: 
1   1.00000
New DM after history re-use:
<dSpData2D:SpM extrapolated using coords
  <sparsity:sparsity for geom step 5
    nrows_g=262 nrows=262 sparsity=.9096 nnzs=62438, refcount: 9>
  <dData2D:(temp array for extrapolation) n=62438 m=1, refcount: 1>
refcount: 1>
Note: For starting DM, Qtot, Tr[D*S] =         74.00000000         73.83185468
No. of atoms with KB's overlaping orbs in proc 0. Max # of overlaps:      30     200

InitMesh: MESH = 180 x 200 x 150 = 5400000
InitMesh: Mesh cutoff (required, used) =   300.000   308.929 Ry
New grid distribution [1]: sub = 2

        iscf     Eharris(eV)        E_KS(eV)     FreeEng(eV)     dDmax    Ef(eV) dHmax(eV)
   scf:    1    -2779.672168    -2778.107041    -2778.107041  0.480436 -3.572658  2.809179
   scf:    2    -2770.016989    -2775.936115    -2775.936115  0.203635 -3.274161  5.995356
   scf:    3    -2779.342303    -2778.585732    -2778.585732  0.145815 -4.157157  0.191167
   scf:    4    -2778.590359    -2778.588270    -2778.588270  0.004089 -4.165090  0.107821
   scf:    5    -2778.590029    -2778.589269    -2778.589269  0.004105 -4.175359  0.029960
   scf:    6    -2778.589471    -2778.589376    -2778.589376  0.002100 -4.176372  0.009856
   scf:    7    -2778.589426    -2778.589403    -2778.589403  0.001790 -4.176212  0.004055
   scf:    8    -2778.589410    -2778.589407    -2778.589407  0.000800 -4.176038  0.001609
   scf:    9    -2778.589409    -2778.589408    -2778.589408  0.000474 -4.176000  0.001009
   scf:   10    -2778.589408    -2778.589408    -2778.589408  0.000312 -4.176028  0.000696
   scf:   11    -2778.589408    -2778.589408    -2778.589408  0.000118 -4.176057  0.000383
   scf:   12    -2778.589408    -2778.589408    -2778.589408  0.000018 -4.176066  0.000190

SCF Convergence by DM+H criterion
max |DM_out - DM_in|         :     0.0000175408
max |H_out - H_in|      (eV) :     0.0001900048
SCF cycle converged after 12 iterations

Using DM_out to compute the final energy and forces
No. of atoms with KB's overlaping orbs in proc 0. Max # of overlaps:      30     200

siesta: E_KS(eV) =            -2778.5894

siesta: Atomic forces (eV/Ang):
----------------------------------------
   Tot   -0.002669    0.003356   -0.004955
----------------------------------------
   Max    5.688974
   Res    1.298128    sqrt( Sum f_i^2 / 3N )
----------------------------------------
   Max    5.688974    constrained

Stress tensor Voigt[x,y,z,yz,xz,xy] (kbar):       -6.42       -3.87       -2.57        0.56       -2.67       -0.24
(Free)E + p*V (eV/cell)    -2766.5704
Target enthalpy (eV/cell)    -2778.5894

                     ====================================
                        Begin CG opt. move =      6
                     ====================================

outcell: Unit cell vectors (Ang):
       16.927466    0.000000    0.000000
        0.000000   18.916973    0.000000
        0.000000    0.000000   14.032973

outcell: Cell vector modules (Ang)   :   16.927466   18.916973   14.032973
outcell: Cell angles (23,13,12) (deg):     90.0000     90.0000     90.0000
outcell: Cell volume (Ang**3)        :   4493.5883
<dSpData1D:S at geom step 6
  <sparsity:sparsity for geom step 6
    nrows_g=262 nrows=262 sparsity=.9081 nnzs=62334, refcount: 7>
  <dData1D:(new from dSpData1D) n=62334, refcount: 1>
refcount: 1>
new_DM -- step:     7
Re-using DM from previous geometries...
Number of DMs in history: 1
 DM extrapolation coefficients: 
1   1.00000
New DM after history re-use:
<dSpData2D:SpM extrapolated using coords
  <sparsity:sparsity for geom step 6
    nrows_g=262 nrows=262 sparsity=.9081 nnzs=62334, refcount: 9>
  <dData2D:(temp array for extrapolation) n=62334 m=1, refcount: 1>
refcount: 1>
No. of atoms with KB's overlaping orbs in proc 0. Max # of overlaps:      30     201

InitMesh: MESH = 180 x 200 x 150 = 5400000
InitMesh: Mesh cutoff (required, used) =   300.000   308.929 Ry
New grid distribution [1]: sub = 2

        iscf     Eharris(eV)        E_KS(eV)     FreeEng(eV)     dDmax    Ef(eV) dHmax(eV)
   scf:    1    -2778.154219    -2778.701647    -2778.701647  0.142851 -4.151155  0.596923
   scf:    2    -2778.273650    -2778.587730    -2778.587730  0.038905 -3.685227  1.383437
   scf:    3    -2778.767782    -2778.728568    -2778.728568  0.026562 -4.010203  0.048540
   scf:    4    -2778.728876    -2778.728737    -2778.728737  0.000781 -4.005008  0.025654
   scf:    5    -2778.728845    -2778.728798    -2778.728798  0.000849 -4.002110  0.006515
   scf:    6    -2778.728811    -2778.728805    -2778.728805  0.000464 -4.002059  0.002531
   scf:    7    -2778.728808    -2778.728807    -2778.728807  0.000457 -4.002147  0.000873
   scf:    8    -2778.728807    -2778.728807    -2778.728807  0.000129 -4.002183  0.000412
   scf:    9    -2778.728807    -2778.728807    -2778.728807  0.000125 -4.002190  0.000196
   scf:   10    -2778.728807    -2778.728807    -2778.728807  0.000052 -4.002176  0.000121

SCF Convergence by DM+H criterion
max |DM_out - DM_in|         :     0.0000521875
max |H_out - H_in|      (eV) :     0.0001210064
SCF cycle converged after 10 iterations

Using DM_out to compute the final energy and forces
No. of atoms with KB's overlaping orbs in proc 0. Max # of overlaps:      30     201

siesta: E_KS(eV) =            -2778.7288

siesta: Atomic forces (eV/Ang):
----------------------------------------
   Tot   -0.003514    0.001595   -0.001483
----------------------------------------
   Max    3.547897
   Res    0.922521    sqrt( Sum f_i^2 / 3N )
----------------------------------------
   Max    3.547897    constrained

Stress tensor Voigt[x,y,z,yz,xz,xy] (kbar):       -6.17       -4.63       -3.35        0.43       -2.42        0.06
(Free)E + p*V (eV/cell)    -2765.5062
Target enthalpy (eV/cell)    -2778.7288

cgvc: Finished line minimization    2.  Mean atomic displacement =    0.0881

                     ====================================
                        Begin CG opt. move =      7
                     ====================================

outcell: Unit cell vectors (Ang):
       16.927466    0.000000    0.000000
        0.000000   18.916973    0.000000
        0.000000    0.000000   14.032973

outcell: Cell vector modules (Ang)   :   16.927466   18.916973   14.032973
outcell: Cell angles (23,13,12) (deg):     90.0000     90.0000     90.0000
outcell: Cell volume (Ang**3)        :   4493.5883
<dSpData1D:S at geom step 7
  <sparsity:sparsity for geom step 7
    nrows_g=262 nrows=262 sparsity=.9057 nnzs=62168, refcount: 7>
  <dData1D:(new from dSpData1D) n=62168, refcount: 1>
refcount: 1>
new_DM -- step:     8
Re-using DM from previous geometries...
Number of DMs in history: 1
 DM extrapolation coefficients: 
1   1.00000
New DM after history re-use:
<dSpData2D:SpM extrapolated using coords
  <sparsity:sparsity for geom step 7
    nrows_g=262 nrows=262 sparsity=.9057 nnzs=62168, refcount: 9>
  <dData2D:(temp array for extrapolation) n=62168 m=1, refcount: 1>
refcount: 1>
No. of atoms with KB's overlaping orbs in proc 0. Max # of overlaps:      30     200

InitMesh: MESH = 180 x 200 x 150 = 5400000
InitMesh: Mesh cutoff (required, used) =   300.000   308.929 Ry
New grid distribution [1]: sub = 2

        iscf     Eharris(eV)        E_KS(eV)     FreeEng(eV)     dDmax    Ef(eV) dHmax(eV)
   scf:    1    -2780.099111    -2778.969071    -2778.969071  0.180852 -3.313146  1.471518
   scf:    2    -2773.839256    -2777.525963    -2777.525963  0.169193 -2.807663  4.884514
   scf:    3    -2779.571906    -2779.193031    -2779.193031  0.132162 -3.406621  0.230611
   scf:    4    -2779.199289    -2779.196423    -2779.196423  0.003269 -3.400589  0.137325
   scf:    5    -2779.198755    -2779.197751    -2779.197751  0.004977 -3.399973  0.048655
   scf:    6    -2779.197957    -2779.197864    -2779.197864  0.002304 -3.403684  0.016718
   scf:    7    -2779.197895    -2779.197882    -2779.197882  0.001467 -3.406298  0.003605
   scf:    8    -2779.197886    -2779.197884    -2779.197884  0.000364 -3.406862  0.001728
   scf:    9    -2779.197886    -2779.197885    -2779.197885  0.000248 -3.407062  0.001116
   scf:   10    -2779.197886    -2779.197885    -2779.197885  0.000104 -3.407042  0.000762
   scf:   11    -2779.197885    -2779.197885    -2779.197885  0.000070 -3.406983  0.000335

SCF Convergence by DM+H criterion
max |DM_out - DM_in|         :     0.0000696461
max |H_out - H_in|      (eV) :     0.0003349213
SCF cycle converged after 11 iterations

Using DM_out to compute the final energy and forces
No. of atoms with KB's overlaping orbs in proc 0. Max # of overlaps:      30     200

siesta: E_KS(eV) =            -2779.1979

siesta: Atomic forces (eV/Ang):
----------------------------------------
   Tot   -0.005087    0.003545   -0.001374
----------------------------------------
   Max    4.184928
   Res    1.051466    sqrt( Sum f_i^2 / 3N )
----------------------------------------
   Max    4.184928    constrained

Stress tensor Voigt[x,y,z,yz,xz,xy] (kbar):       -3.75       -1.68       -1.67        0.33       -2.56        1.62
(Free)E + p*V (eV/cell)    -2772.5611
Target enthalpy (eV/cell)    -2779.1979

                     ====================================
                        Begin CG opt. move =      8
                     ====================================

outcell: Unit cell vectors (Ang):
       16.927466    0.000000    0.000000
        0.000000   18.916973    0.000000
        0.000000    0.000000   14.032973

outcell: Cell vector modules (Ang)   :   16.927466   18.916973   14.032973
outcell: Cell angles (23,13,12) (deg):     90.0000     90.0000     90.0000
outcell: Cell volume (Ang**3)        :   4493.5883
<dSpData1D:S at geom step 8
  <sparsity:sparsity for geom step 8
    nrows_g=262 nrows=262 sparsity=.9075 nnzs=62296, refcount: 7>
  <dData1D:(new from dSpData1D) n=62296, refcount: 1>
refcount: 1>
new_DM -- step:     9
Re-using DM from previous geometries...
Number of DMs in history: 1
 DM extrapolation coefficients: 
1   1.00000
New DM after history re-use:
<dSpData2D:SpM extrapolated using coords
  <sparsity:sparsity for geom step 8
    nrows_g=262 nrows=262 sparsity=.9075 nnzs=62296, refcount: 9>
  <dData2D:(temp array for extrapolation) n=62296 m=1, refcount: 1>
refcount: 1>
No. of atoms with KB's overlaping orbs in proc 0. Max # of overlaps:      30     200

InitMesh: MESH = 180 x 200 x 150 = 5400000
InitMesh: Mesh cutoff (required, used) =   300.000   308.929 Ry
New grid distribution [1]: sub = 2

        iscf     Eharris(eV)        E_KS(eV)     FreeEng(eV)     dDmax    Ef(eV) dHmax(eV)
   scf:    1    -2778.819417    -2779.338638    -2779.338638  0.050823 -3.273616  0.495143
   scf:    2    -2778.830107    -2779.198201    -2779.198201  0.046175 -4.209349  1.591476
   scf:    3    -2779.405160    -2779.364141    -2779.364141  0.034331 -4.358812  0.054657
   scf:    4    -2779.364758    -2779.364474    -2779.364474  0.001090 -4.360721  0.038014
   scf:    5    -2779.364715    -2779.364612    -2779.364612  0.001611 -4.360668  0.013558
   scf:    6    -2779.364630    -2779.364622    -2779.364622  0.000709 -4.359705  0.004887
   scf:    7    -2779.364625    -2779.364624    -2779.364624  0.000487 -4.358940  0.001083
   scf:    8    -2779.364624    -2779.364624    -2779.364624  0.000116 -4.358794  0.000493
   scf:    9    -2779.364624    -2779.364624    -2779.364624  0.000092 -4.358734  0.000290

SCF Convergence by DM+H criterion
max |DM_out - DM_in|         :     0.0000924739
max |H_out - H_in|      (eV) :     0.0002898187
SCF cycle converged after 9 iterations

Using DM_out to compute the final energy and forces
No. of atoms with KB's overlaping orbs in proc 0. Max # of overlaps:      30     200

siesta: E_KS(eV) =            -2779.3646

siesta: Atomic forces (eV/Ang):
----------------------------------------
   Tot   -0.005545    0.002185   -0.004476
----------------------------------------
   Max    1.998621
   Res    0.625077    sqrt( Sum f_i^2 / 3N )
----------------------------------------
   Max    1.998621    constrained

Stress tensor Voigt[x,y,z,yz,xz,xy] (kbar):       -4.28       -2.48       -2.18        0.33       -2.47        1.16
(Free)E + p*V (eV/cell)    -2771.0096
Target enthalpy (eV/cell)    -2779.3646

cgvc: Finished line minimization    3.  Mean atomic displacement =    0.0588

                     ====================================
                        Begin CG opt. move =      9
                     ====================================

outcell: Unit cell vectors (Ang):
       16.927466    0.000000    0.000000
        0.000000   18.916973    0.000000
        0.000000    0.000000   14.032973

outcell: Cell vector modules (Ang)   :   16.927466   18.916973   14.032973
outcell: Cell angles (23,13,12) (deg):     90.0000     90.0000     90.0000
outcell: Cell volume (Ang**3)        :   4493.5883
<dSpData1D:S at geom step 9
  <sparsity:sparsity for geom step 9
    nrows_g=262 nrows=262 sparsity=.9048 nnzs=62112, refcount: 7>
  <dData1D:(new from dSpData1D) n=62112, refcount: 1>
refcount: 1>
new_DM -- step:    10
Re-using DM from previous geometries...
Number of DMs in history: 1
 DM extrapolation coefficients: 
1   1.00000
New DM after history re-use:
<dSpData2D:SpM extrapolated using coords
  <sparsity:sparsity for geom step 9
    nrows_g=262 nrows=262 sparsity=.9048 nnzs=62112, refcount: 9>
  <dData2D:(temp array for extrapolation) n=62112 m=1, refcount: 1>
refcount: 1>
No. of atoms with KB's overlaping orbs in proc 0. Max # of overlaps:      30     200

InitMesh: MESH = 180 x 200 x 150 = 5400000
InitMesh: Mesh cutoff (required, used) =   300.000   308.929 Ry
New grid distribution [1]: sub = 2

        iscf     Eharris(eV)        E_KS(eV)     FreeEng(eV)     dDmax    Ef(eV) dHmax(eV)
   scf:    1    -2780.617447    -2779.750525    -2779.750525  0.164530 -2.531794  0.846956
   scf:    2    -2777.953893    -2779.249247    -2779.249247  0.094764 -2.848032  2.694762
   scf:    3    -2779.977429    -2779.832054    -2779.832054  0.071054 -2.585772  0.130314
   scf:    4    -2779.833031    -2779.832584    -2779.832584  0.001395 -2.583986  0.069195
   scf:    5    -2779.832975    -2779.832810    -2779.832810  0.002085 -2.583354  0.011584
   scf:    6    -2779.832837    -2779.832825    -2779.832825  0.000693 -2.583737  0.005077
   scf:    7    -2779.832831    -2779.832828    -2779.832828  0.000535 -2.583749  0.001968
   scf:    8    -2779.832829    -2779.832829    -2779.832829  0.000242 -2.583587  0.001048
   scf:    9    -2779.832829    -2779.832829    -2779.832829  0.000164 -2.583411  0.000605
   scf:   10    -2779.832829    -2779.832829    -2779.832829  0.000046 -2.583333  0.000380

SCF Convergence by DM+H criterion
max |DM_out - DM_in|         :     0.0000463197
max |H_out - H_in|      (eV) :     0.0003797017
SCF cycle converged after 10 iterations

Using DM_out to compute the final energy and forces
No. of atoms with KB's overlaping orbs in proc 0. Max # of overlaps:      30     200

siesta: E_KS(eV) =            -2779.8328

siesta: Atomic forces (eV/Ang):
----------------------------------------
   Tot   -0.000115   -0.000791    0.001764
----------------------------------------
   Max    1.100091
   Res    0.423349    sqrt( Sum f_i^2 / 3N )
----------------------------------------
   Max    1.100091    constrained

Stress tensor Voigt[x,y,z,yz,xz,xy] (kbar):       -2.18       -1.37       -1.69        0.35       -2.00        0.90
(Free)E + p*V (eV/cell)    -2774.9281
Target enthalpy (eV/cell)    -2779.8328

                     ====================================
                        Begin CG opt. move =     10
                     ====================================

outcell: Unit cell vectors (Ang):
       16.927466    0.000000    0.000000
        0.000000   18.916973    0.000000
        0.000000    0.000000   14.032973

outcell: Cell vector modules (Ang)   :   16.927466   18.916973   14.032973
outcell: Cell angles (23,13,12) (deg):     90.0000     90.0000     90.0000
outcell: Cell volume (Ang**3)        :   4493.5883
<dSpData1D:S at geom step 10
  <sparsity:sparsity for geom step 10
    nrows_g=262 nrows=262 sparsity=.8987 nnzs=61690, refcount: 7>
  <dData1D:(new from dSpData1D) n=61690, refcount: 1>
refcount: 1>
new_DM -- step:    11
Re-using DM from previous geometries...
Number of DMs in history: 1
 DM extrapolation coefficients: 
1   1.00000
New DM after history re-use:
<dSpData2D:SpM extrapolated using coords
  <sparsity:sparsity for geom step 10
    nrows_g=262 nrows=262 sparsity=.8987 nnzs=61690, refcount: 9>
  <dData2D:(temp array for extrapolation) n=61690 m=1, refcount: 1>
refcount: 1>
Note: For starting DM, Qtot, Tr[D*S] =         74.00000000         73.86924617
No. of atoms with KB's overlaping orbs in proc 0. Max # of overlaps:      30     195

InitMesh: MESH = 180 x 200 x 150 = 5400000
InitMesh: Mesh cutoff (required, used) =   300.000   308.929 Ry
New grid distribution [1]: sub = 2

        iscf     Eharris(eV)        E_KS(eV)     FreeEng(eV)     dDmax    Ef(eV) dHmax(eV)
   scf:    1    -2779.944797    -2779.248545    -2779.248545  0.212979 -3.189196  1.565863
   scf:    2    -2773.812860    -2777.728779    -2777.728779  0.167525 -3.917416  4.734669
   scf:    3    -2779.932256    -2779.488119    -2779.488119  0.124915 -3.338572  0.149888
   scf:    4    -2779.490166    -2779.489227    -2779.489227  0.001970 -3.338609  0.085202
   scf:    5    -2779.490113    -2779.489736    -2779.489736  0.002837 -3.340598  0.015460
   scf:    6    -2779.489796    -2779.489768    -2779.489768  0.000922 -3.341666  0.006171
   scf:    7    -2779.489781    -2779.489775    -2779.489775  0.000572 -3.341892  0.002892
   scf:    8    -2779.489778    -2779.489777    -2779.489777  0.000344 -3.341753  0.001356
   scf:    9    -2779.489777    -2779.489777    -2779.489777  0.000193 -3.341560  0.000779
   scf:   10    -2779.489777    -2779.489777    -2779.489777  0.000063 -3.341448  0.000483

SCF Convergence by DM+H criterion
max |DM_out - DM_in|         :     0.0000629695
max |H_out - H_in|      (eV) :     0.0004828920
SCF cycle converged after 10 iterations

Using DM_out to compute the final energy and forces
No. of atoms with KB's overlaping orbs in proc 0. Max # of overlaps:      30     195

siesta: E_KS(eV) =            -2779.4898

siesta: Atomic forces (eV/Ang):
----------------------------------------
   Tot   -0.002975    0.002814   -0.000636
----------------------------------------
   Max    4.498169
   Res    1.025828    sqrt( Sum f_i^2 / 3N )
----------------------------------------
   Max    4.498169    constrained

Stress tensor Voigt[x,y,z,yz,xz,xy] (kbar):        0.35       -0.03       -0.97        0.38       -1.30        0.79
(Free)E + p*V (eV/cell)    -2778.8793
Target enthalpy (eV/cell)    -2779.4898

                     ====================================
                        Begin CG opt. move =     11
                     ====================================

outcell: Unit cell vectors (Ang):
       16.927466    0.000000    0.000000
        0.000000   18.916973    0.000000
        0.000000    0.000000   14.032973

outcell: Cell vector modules (Ang)   :   16.927466   18.916973   14.032973
outcell: Cell angles (23,13,12) (deg):     90.0000     90.0000     90.0000
outcell: Cell volume (Ang**3)        :   4493.5883
<dSpData1D:S at geom step 11
  <sparsity:sparsity for geom step 11
    nrows_g=262 nrows=262 sparsity=.8997 nnzs=61756, refcount: 7>
  <dData1D:(new from dSpData1D) n=61756, refcount: 1>
refcount: 1>
new_DM -- step:    12
Re-using DM from previous geometries...
Number of DMs in history: 1
 DM extrapolation coefficients: 
1   1.00000
New DM after history re-use:
<dSpData2D:SpM extrapolated using coords
  <sparsity:sparsity for geom step 11
    nrows_g=262 nrows=262 sparsity=.8997 nnzs=61756, refcount: 9>
  <dData2D:(temp array for extrapolation) n=61756 m=1, refcount: 1>
refcount: 1>
Note: For starting DM, Qtot, Tr[D*S] =         74.00000000         74.10614738
No. of atoms with KB's overlaping orbs in proc 0. Max # of overlaps:      30     195

InitMesh: MESH = 180 x 200 x 150 = 5400000
InitMesh: Mesh cutoff (required, used) =   300.000   308.929 Ry
New grid distribution [1]: sub = 2

        iscf     Eharris(eV)        E_KS(eV)     FreeEng(eV)     dDmax    Ef(eV) dHmax(eV)
   scf:    1    -2778.488573    -2779.730339    -2779.730339  0.155521 -2.884197  1.202239
   scf:    2    -2776.706156    -2778.886510    -2778.886510  0.122570 -2.452538  3.674476
   scf:    3    -2780.121154    -2779.865042    -2779.865042  0.088105 -2.768110  0.146711
   scf:    4    -2779.866318    -2779.865733    -2779.865733  0.001822 -2.768541  0.076841
   scf:    5    -2779.866292    -2779.866051    -2779.866051  0.002272 -2.765887  0.013709
   scf:    6    -2779.866097    -2779.866076    -2779.866076  0.000901 -2.765174  0.005307
   scf:    7    -2779.866085    -2779.866081    -2779.866081  0.000527 -2.764975  0.002237
   scf:    8    -2779.866082    -2779.866082    -2779.866082  0.000301 -2.765016  0.001147
   scf:    9    -2779.866082    -2779.866082    -2779.866082  0.000180 -2.765112  0.000621
   scf:   10    -2779.866082    -2779.866082    -2779.866082  0.000065 -2.765180  0.000347

SCF Convergence by DM+H criterion
max |DM_out - DM_in|         :     0.0000649878
max |H_out - H_in|      (eV) :     0.0003467110
SCF cycle converged after 10 iterations

Using DM_out to compute the final energy and forces
No. of atoms with KB's overlaping orbs in proc 0. Max # of overlaps:      30     195

siesta: E_KS(eV) =            -2779.8661

siesta: Atomic forces (eV/Ang):
----------------------------------------
   Tot    0.001752   -0.004319    0.001199
----------------------------------------
   Max    1.952393
   Res    0.523780    sqrt( Sum f_i^2 / 3N )
----------------------------------------
   Max    1.952393    constrained

Stress tensor Voigt[x,y,z,yz,xz,xy] (kbar):       -1.49       -1.00       -1.51        0.36       -1.83        0.84
(Free)E + p*V (eV/cell)    -2776.1254
Target enthalpy (eV/cell)    -2779.8661

cgvc: Finished line minimization    4.  Mean atomic displacement =    0.0815

                     ====================================
                        Begin CG opt. move =     12
                     ====================================

outcell: Unit cell vectors (Ang):
       16.927466    0.000000    0.000000
        0.000000   18.916973    0.000000
        0.000000    0.000000   14.032973

outcell: Cell vector modules (Ang)   :   16.927466   18.916973   14.032973
outcell: Cell angles (23,13,12) (deg):     90.0000     90.0000     90.0000
outcell: Cell volume (Ang**3)        :   4493.5883
<dSpData1D:S at geom step 12
  <sparsity:sparsity for geom step 12
    nrows_g=262 nrows=262 sparsity=.8987 nnzs=61688, refcount: 7>
  <dData1D:(new from dSpData1D) n=61688, refcount: 1>
refcount: 1>
new_DM -- step:    13
Re-using DM from previous geometries...
Number of DMs in history: 1
 DM extrapolation coefficients: 
1   1.00000
New DM after history re-use:
<dSpData2D:SpM extrapolated using coords
  <sparsity:sparsity for geom step 12
    nrows_g=262 nrows=262 sparsity=.8987 nnzs=61688, refcount: 9>
  <dData2D:(temp array for extrapolation) n=61688 m=1, refcount: 1>
refcount: 1>
Note: For starting DM, Qtot, Tr[D*S] =         74.00000000         73.90980644
No. of atoms with KB's overlaping orbs in proc 0. Max # of overlaps:      30     195

InitMesh: MESH = 180 x 200 x 150 = 5400000
InitMesh: Mesh cutoff (required, used) =   300.000   308.929 Ry
New grid distribution [1]: sub = 2

        iscf     Eharris(eV)        E_KS(eV)     FreeEng(eV)     dDmax    Ef(eV) dHmax(eV)
   scf:    1    -2780.681909    -2780.037949    -2780.037949  0.155986 -3.139582  0.831885
   scf:    2    -2779.263071    -2779.855606    -2779.855606  0.034866 -3.118462  1.874534
   scf:    3    -2780.213236    -2780.122989    -2780.122989  0.022344 -3.125239  0.103457
   scf:    4    -2780.124289    -2780.123687    -2780.123687  0.001697 -3.120239  0.061793
   scf:    5    -2780.124164    -2780.123979    -2780.123979  0.002383 -3.112730  0.012986
   scf:    6    -2780.124001    -2780.123990    -2780.123990  0.000444 -3.111423  0.006586
   scf:    7    -2780.123999    -2780.123995    -2780.123995  0.000415 -3.110291  0.002391
   scf:    8    -2780.123997    -2780.123996    -2780.123996  0.000059 -3.110180  0.001895
   scf:    9    -2780.123997    -2780.123997    -2780.123997  0.000053 -3.110090  0.000999

SCF Convergence by DM+H criterion
max |DM_out - DM_in|         :     0.0000532051
max |H_out - H_in|      (eV) :     0.0009992939
SCF cycle converged after 9 iterations

Using DM_out to compute the final energy and forces
No. of atoms with KB's overlaping orbs in proc 0. Max # of overlaps:      30     195

siesta: E_KS(eV) =            -2780.1240

siesta: Atomic forces (eV/Ang):
----------------------------------------
   Tot    0.002994   -0.001361   -0.002879
----------------------------------------
   Max    1.485355
   Res    0.447099    sqrt( Sum f_i^2 / 3N )
----------------------------------------
   Max    1.485355    constrained

Stress tensor Voigt[x,y,z,yz,xz,xy] (kbar):        0.77        0.34       -0.79        0.99       -0.80        0.92
(Free)E + p*V (eV/cell)    -2780.4201
Target enthalpy (eV/cell)    -2780.1240

                     ====================================
                        Begin CG opt. move =     13
                     ====================================

outcell: Unit cell vectors (Ang):
       16.927466    0.000000    0.000000
        0.000000   18.916973    0.000000
        0.000000    0.000000   14.032973

outcell: Cell vector modules (Ang)   :   16.927466   18.916973   14.032973
outcell: Cell angles (23,13,12) (deg):     90.0000     90.0000     90.0000
outcell: Cell volume (Ang**3)        :   4493.5883
<dSpData1D:S at geom step 13
  <sparsity:sparsity for geom step 13
    nrows_g=262 nrows=262 sparsity=.8992 nnzs=61722, refcount: 7>
  <dData1D:(new from dSpData1D) n=61722, refcount: 1>
refcount: 1>
new_DM -- step:    14
Re-using DM from previous geometries...
Number of DMs in history: 1
 DM extrapolation coefficients: 
1   1.00000
New DM after history re-use:
<dSpData2D:SpM extrapolated using coords
  <sparsity:sparsity for geom step 13
    nrows_g=262 nrows=262 sparsity=.8992 nnzs=61722, refcount: 9>
  <dData2D:(temp array for extrapolation) n=61722 m=1, refcount: 1>
refcount: 1>
No. of atoms with KB's overlaping orbs in proc 0. Max # of overlaps:      30     195

InitMesh: MESH = 180 x 200 x 150 = 5400000
InitMesh: Mesh cutoff (required, used) =   300.000   308.929 Ry
New grid distribution [1]: sub = 2

        iscf     Eharris(eV)        E_KS(eV)     FreeEng(eV)     dDmax    Ef(eV) dHmax(eV)
   scf:    1    -2779.959576    -2780.152642    -2780.152642  0.034599 -3.031908  0.209161
   scf:    2    -2780.102707    -2780.140664    -2780.140664  0.009429 -3.005078  0.509669
   scf:    3    -2780.163223    -2780.157789    -2780.157789  0.005545 -3.024590  0.026381
   scf:    4    -2780.157877    -2780.157837    -2780.157837  0.000410 -3.025119  0.015026
   scf:    5    -2780.157867    -2780.157855    -2780.157855  0.000558 -3.026335  0.003543
   scf:    6    -2780.157857    -2780.157856    -2780.157856  0.000137 -3.026677  0.001931
   scf:    7    -2780.157856    -2780.157856    -2780.157856  0.000120 -3.026964  0.000582
   scf:    8    -2780.157856    -2780.157856    -2780.157856  0.000017 -3.027001  0.000444

SCF Convergence by DM+H criterion
max |DM_out - DM_in|         :     0.0000174326
max |H_out - H_in|      (eV) :     0.0004438588
SCF cycle converged after 8 iterations

Using DM_out to compute the final energy and forces
No. of atoms with KB's overlaping orbs in proc 0. Max # of overlaps:      30     195

siesta: E_KS(eV) =            -2780.1579

siesta: Atomic forces (eV/Ang):
----------------------------------------
   Tot    0.001739   -0.001538   -0.002402
----------------------------------------
   Max    0.848306
   Res    0.314359    sqrt( Sum f_i^2 / 3N )
----------------------------------------
   Max    0.848306    constrained

Stress tensor Voigt[x,y,z,yz,xz,xy] (kbar):        0.27        0.04       -0.94        0.82       -1.02        0.89
(Free)E + p*V (eV/cell)    -2779.5652
Target enthalpy (eV/cell)    -2780.1579

cgvc: Finished line minimization    5.  Mean atomic displacement =    0.0613

                     ====================================
                        Begin CG opt. move =     14
                     ====================================

outcell: Unit cell vectors (Ang):
       16.927466    0.000000    0.000000
        0.000000   18.916973    0.000000
        0.000000    0.000000   14.032973

outcell: Cell vector modules (Ang)   :   16.927466   18.916973   14.032973
outcell: Cell angles (23,13,12) (deg):     90.0000     90.0000     90.0000
outcell: Cell volume (Ang**3)        :   4493.5883
<dSpData1D:S at geom step 14
  <sparsity:sparsity for geom step 14
    nrows_g=262 nrows=262 sparsity=.9004 nnzs=61806, refcount: 7>
  <dData1D:(new from dSpData1D) n=61806, refcount: 1>
refcount: 1>
new_DM -- step:    15
Re-using DM from previous geometries...
Number of DMs in history: 1
 DM extrapolation coefficients: 
1   1.00000
New DM after history re-use:
<dSpData2D:SpM extrapolated using coords
  <sparsity:sparsity for geom step 14
    nrows_g=262 nrows=262 sparsity=.9004 nnzs=61806, refcount: 9>
  <dData2D:(temp array for extrapolation) n=61806 m=1, refcount: 1>
refcount: 1>
No. of atoms with KB's overlaping orbs in proc 0. Max # of overlaps:      30     195

InitMesh: MESH = 180 x 200 x 150 = 5400000
InitMesh: Mesh cutoff (required, used) =   300.000   308.929 Ry
New grid distribution [1]: sub = 2

        iscf     Eharris(eV)        E_KS(eV)     FreeEng(eV)     dDmax    Ef(eV) dHmax(eV)
   scf:    1    -2780.108013    -2780.077221    -2780.077221  0.084769 -3.105139  1.601364
   scf:    2    -2777.291184    -2779.297600    -2779.297600  0.125084 -2.288078  4.359056
   scf:    3    -2780.426418    -2780.200307    -2780.200307  0.091819 -2.849883  0.154697
   scf:    4    -2780.201863    -2780.201158    -2780.201158  0.001651 -2.832633  0.087012
   scf:    5    -2780.201723    -2780.201491    -2780.201491  0.001612 -2.816224  0.018883
   scf:    6    -2780.201528    -2780.201511    -2780.201511  0.000549 -2.813895  0.007086
   scf:    7    -2780.201520    -2780.201516    -2780.201516  0.000420 -2.812488  0.002359
   scf:    8    -2780.201517    -2780.201517    -2780.201517  0.000149 -2.812080  0.001639
   scf:    9    -2780.201517    -2780.201517    -2780.201517  0.000066 -2.811895  0.001183
   scf:   10    -2780.201517    -2780.201517    -2780.201517  0.000022 -2.811822  0.000641

SCF Convergence by DM+H criterion
max |DM_out - DM_in|         :     0.0000222881
max |H_out - H_in|      (eV) :     0.0006407074
SCF cycle converged after 10 iterations

Using DM_out to compute the final energy and forces
No. of atoms with KB's overlaping orbs in proc 0. Max # of overlaps:      30     195

siesta: E_KS(eV) =            -2780.2015

siesta: Atomic forces (eV/Ang):
----------------------------------------
   Tot    0.000908    0.001178   -0.000279
----------------------------------------
   Max    2.188072
   Res    0.521446    sqrt( Sum f_i^2 / 3N )
----------------------------------------
   Max    2.188072    constrained

Stress tensor Voigt[x,y,z,yz,xz,xy] (kbar):        0.14        0.01       -0.77        0.35       -0.41        0.27
(Free)E + p*V (eV/cell)    -2779.6217
Target enthalpy (eV/cell)    -2780.2015

                     ====================================
                        Begin CG opt. move =     15
                     ====================================

outcell: Unit cell vectors (Ang):
       16.927466    0.000000    0.000000
        0.000000   18.916973    0.000000
        0.000000    0.000000   14.032973

outcell: Cell vector modules (Ang)   :   16.927466   18.916973   14.032973
outcell: Cell angles (23,13,12) (deg):     90.0000     90.0000     90.0000
outcell: Cell volume (Ang**3)        :   4493.5883
<dSpData1D:S at geom step 15
  <sparsity:sparsity for geom step 15
    nrows_g=262 nrows=262 sparsity=.8988 nnzs=61696, refcount: 7>
  <dData1D:(new from dSpData1D) n=61696, refcount: 1>
refcount: 1>
new_DM -- step:    16
Re-using DM from previous geometries...
Number of DMs in history: 1
 DM extrapolation coefficients: 
1   1.00000
New DM after history re-use:
<dSpData2D:SpM extrapolated using coords
  <sparsity:sparsity for geom step 15
    nrows_g=262 nrows=262 sparsity=.8988 nnzs=61696, refcount: 9>
  <dData2D:(temp array for extrapolation) n=61696 m=1, refcount: 1>
refcount: 1>
No. of atoms with KB's overlaping orbs in proc 0. Max # of overlaps:      30     195

InitMesh: MESH = 180 x 200 x 150 = 5400000
InitMesh: Mesh cutoff (required, used) =   300.000   308.929 Ry
New grid distribution [1]: sub = 2

        iscf     Eharris(eV)        E_KS(eV)     FreeEng(eV)     dDmax    Ef(eV) dHmax(eV)
   scf:    1    -2780.085858    -2780.246413    -2780.246413  0.039503 -2.781731  0.659245
   scf:    2    -2779.754125    -2780.108647    -2780.108647  0.052247 -3.154457  1.774755
   scf:    3    -2780.308154    -2780.268221    -2780.268221  0.038217 -2.885636  0.063665
   scf:    4    -2780.268493    -2780.268368    -2780.268368  0.000655 -2.892352  0.036675
   scf:    5    -2780.268471    -2780.268430    -2780.268430  0.000718 -2.899222  0.006000
   scf:    6    -2780.268435    -2780.268432    -2780.268432  0.000176 -2.899870  0.002974
   scf:    7    -2780.268434    -2780.268433    -2780.268433  0.000206 -2.900531  0.000724
   scf:    8    -2780.268434    -2780.268434    -2780.268434  0.000034 -2.900625  0.000651

SCF Convergence by DM+H criterion
max |DM_out - DM_in|         :     0.0000344797
max |H_out - H_in|      (eV) :     0.0006514095
SCF cycle converged after 8 iterations

Using DM_out to compute the final energy and forces
No. of atoms with KB's overlaping orbs in proc 0. Max # of overlaps:      30     195

siesta: E_KS(eV) =            -2780.2684

siesta: Atomic forces (eV/Ang):
----------------------------------------
   Tot    0.000824   -0.000812   -0.001876
----------------------------------------
   Max    1.021776
   Res    0.267657    sqrt( Sum f_i^2 / 3N )
----------------------------------------
   Max    1.021776    constrained

Stress tensor Voigt[x,y,z,yz,xz,xy] (kbar):        0.24        0.07       -0.84        0.55       -0.67        0.52
(Free)E + p*V (eV/cell)    -2779.7719
Target enthalpy (eV/cell)    -2780.2684

cgvc: Finished line minimization    6.  Mean atomic displacement =    0.0347

                     ====================================
                        Begin CG opt. move =     16
                     ====================================

outcell: Unit cell vectors (Ang):
       16.927466    0.000000    0.000000
        0.000000   18.916973    0.000000
        0.000000    0.000000   14.032973

outcell: Cell vector modules (Ang)   :   16.927466   18.916973   14.032973
outcell: Cell angles (23,13,12) (deg):     90.0000     90.0000     90.0000
outcell: Cell volume (Ang**3)        :   4493.5883
<dSpData1D:S at geom step 16
  <sparsity:sparsity for geom step 16
    nrows_g=262 nrows=262 sparsity=.8969 nnzs=61566, refcount: 7>
  <dData1D:(new from dSpData1D) n=61566, refcount: 1>
refcount: 1>
new_DM -- step:    17
Re-using DM from previous geometries...
Number of DMs in history: 1
 DM extrapolation coefficients: 
1   1.00000
New DM after history re-use:
<dSpData2D:SpM extrapolated using coords
  <sparsity:sparsity for geom step 16
    nrows_g=262 nrows=262 sparsity=.8969 nnzs=61566, refcount: 9>
  <dData2D:(temp array for extrapolation) n=61566 m=1, refcount: 1>
refcount: 1>
No. of atoms with KB's overlaping orbs in proc 0. Max # of overlaps:      30     191

InitMesh: MESH = 180 x 200 x 150 = 5400000
InitMesh: Mesh cutoff (required, used) =   300.000   308.929 Ry
New grid distribution [1]: sub = 2

        iscf     Eharris(eV)        E_KS(eV)     FreeEng(eV)     dDmax    Ef(eV) dHmax(eV)
   scf:    1    -2780.126782    -2780.342366    -2780.342366  0.041047 -2.993222  0.413840
[...]
        0.000000   18.916973    0.000000
        0.000000    0.000000   14.032973

outcell: Cell vector modules (Ang)   :   16.927466   18.916973   14.032973
outcell: Cell angles (23,13,12) (deg):     90.0000     90.0000     90.0000
outcell: Cell volume (Ang**3)        :   4493.5883
<dSpData1D:S at geom step 397
  <sparsity:sparsity for geom step 397
    nrows_g=262 nrows=262 sparsity=.8543 nnzs=58646, refcount: 7>
  <dData1D:(new from dSpData1D) n=58646, refcount: 1>
refcount: 1>
new_DM -- step:   398
Re-using DM from previous geometries...
Number of DMs in history: 1
 DM extrapolation coefficients: 
1   1.00000
New DM after history re-use:
<dSpData2D:SpM extrapolated using coords
  <sparsity:sparsity for geom step 397
    nrows_g=262 nrows=262 sparsity=.8543 nnzs=58646, refcount: 9>
  <dData2D:(temp array for extrapolation) n=58646 m=1, refcount: 1>
refcount: 1>
No. of atoms with KB's overlaping orbs in proc 0. Max # of overlaps:      30     178

InitMesh: MESH = 180 x 200 x 150 = 5400000
InitMesh: Mesh cutoff (required, used) =   300.000   308.929 Ry
New grid distribution [1]: sub = 2

        iscf     Eharris(eV)        E_KS(eV)     FreeEng(eV)     dDmax    Ef(eV) dHmax(eV)
   scf:    1    -2780.910822    -2780.916961    -2780.916961  0.022532 -2.930170  0.024884
   scf:    2    -2780.915897    -2780.916670    -2780.916670  0.001189 -2.936634  0.067712
   scf:    3    -2780.917108    -2780.917018    -2780.917018  0.000833 -2.932646  0.002356
   scf:    4    -2780.917019    -2780.917019    -2780.917019  0.000038 -2.932842  0.001307
   scf:    5    -2780.917019    -2780.917019    -2780.917019  0.000047 -2.933011  0.000266

SCF Convergence by DM+H criterion
max |DM_out - DM_in|         :     0.0000472904
max |H_out - H_in|      (eV) :     0.0002659846
SCF cycle converged after 5 iterations

Using DM_out to compute the final energy and forces
No. of atoms with KB's overlaping orbs in proc 0. Max # of overlaps:      30     178

siesta: E_KS(eV) =            -2780.9170

siesta: Atomic forces (eV/Ang):
----------------------------------------
   Tot   -0.000517    0.006455   -0.000601
----------------------------------------
   Max    0.028264
   Res    0.010029    sqrt( Sum f_i^2 / 3N )
----------------------------------------
   Max    0.028264    constrained

Stress tensor Voigt[x,y,z,yz,xz,xy] (kbar):        0.02        0.04        0.02       -0.01        0.01       -0.00
(Free)E + p*V (eV/cell)    -2780.9897
Target enthalpy (eV/cell)    -2780.9170

                     ====================================
                        Begin CG opt. move =    398
                     ====================================

outcell: Unit cell vectors (Ang):
       16.927466    0.000000    0.000000
        0.000000   18.916973    0.000000
        0.000000    0.000000   14.032973

outcell: Cell vector modules (Ang)   :   16.927466   18.916973   14.032973
outcell: Cell angles (23,13,12) (deg):     90.0000     90.0000     90.0000
outcell: Cell volume (Ang**3)        :   4493.5883
<dSpData1D:S at geom step 398
  <sparsity:sparsity for geom step 398
    nrows_g=262 nrows=262 sparsity=.8543 nnzs=58646, refcount: 7>
  <dData1D:(new from dSpData1D) n=58646, refcount: 1>
refcount: 1>
new_DM -- step:   399
Re-using DM from previous geometries...
Number of DMs in history: 1
 DM extrapolation coefficients: 
1   1.00000
New DM after history re-use:
<dSpData2D:SpM extrapolated using coords
  <sparsity:sparsity for geom step 398
    nrows_g=262 nrows=262 sparsity=.8543 nnzs=58646, refcount: 9>
  <dData2D:(temp array for extrapolation) n=58646 m=1, refcount: 1>
refcount: 1>
No. of atoms with KB's overlaping orbs in proc 0. Max # of overlaps:      30     178

InitMesh: MESH = 180 x 200 x 150 = 5400000
InitMesh: Mesh cutoff (required, used) =   300.000   308.929 Ry
New grid distribution [1]: sub = 2

        iscf     Eharris(eV)        E_KS(eV)     FreeEng(eV)     dDmax    Ef(eV) dHmax(eV)
   scf:    1    -2780.917285    -2780.917019    -2780.917019  0.000148 -2.932789  0.001017
   scf:    2    -2780.917017    -2780.917018    -2780.917018  0.000044 -2.932593  0.002855
   scf:    3    -2780.917019    -2780.917019    -2780.917019  0.000033 -2.932708  0.000141

SCF Convergence by DM+H criterion
max |DM_out - DM_in|         :     0.0000325130
max |H_out - H_in|      (eV) :     0.0001408826
SCF cycle converged after 3 iterations

Using DM_out to compute the final energy and forces
No. of atoms with KB's overlaping orbs in proc 0. Max # of overlaps:      30     178

siesta: E_KS(eV) =            -2780.9170

siesta: Atomic forces (eV/Ang):
----------------------------------------
   Tot   -0.000535    0.006447   -0.000653
----------------------------------------
   Max    0.027482
   Res    0.009588    sqrt( Sum f_i^2 / 3N )
----------------------------------------
   Max    0.027482    constrained

Stress tensor Voigt[x,y,z,yz,xz,xy] (kbar):        0.02        0.04        0.02       -0.01        0.01       -0.00
(Free)E + p*V (eV/cell)    -2780.9900
Target enthalpy (eV/cell)    -2780.9170

cgvc: Finished line minimization  161.  Mean atomic displacement =    0.0056

                     ====================================
                        Begin CG opt. move =    399
                     ====================================

outcell: Unit cell vectors (Ang):
       16.927466    0.000000    0.000000
        0.000000   18.916973    0.000000
        0.000000    0.000000   14.032973

outcell: Cell vector modules (Ang)   :   16.927466   18.916973   14.032973
outcell: Cell angles (23,13,12) (deg):     90.0000     90.0000     90.0000
outcell: Cell volume (Ang**3)        :   4493.5883
<dSpData1D:S at geom step 399
  <sparsity:sparsity for geom step 399
    nrows_g=262 nrows=262 sparsity=.8543 nnzs=58646, refcount: 7>
  <dData1D:(new from dSpData1D) n=58646, refcount: 1>
refcount: 1>
new_DM -- step:   400
Re-using DM from previous geometries...
Number of DMs in history: 1
 DM extrapolation coefficients: 
1   1.00000
New DM after history re-use:
<dSpData2D:SpM extrapolated using coords
  <sparsity:sparsity for geom step 399
    nrows_g=262 nrows=262 sparsity=.8543 nnzs=58646, refcount: 9>
  <dData2D:(temp array for extrapolation) n=58646 m=1, refcount: 1>
refcount: 1>
No. of atoms with KB's overlaping orbs in proc 0. Max # of overlaps:      30     178

InitMesh: MESH = 180 x 200 x 150 = 5400000
InitMesh: Mesh cutoff (required, used) =   300.000   308.929 Ry
New grid distribution [1]: sub = 2

        iscf     Eharris(eV)        E_KS(eV)     FreeEng(eV)     dDmax    Ef(eV) dHmax(eV)
   scf:    1    -2780.908764    -2780.917136    -2780.917136  0.002775 -2.924411  0.012590
   scf:    2    -2780.916845    -2780.917064    -2780.917064  0.000956 -2.928500  0.030063
   scf:    3    -2780.917193    -2780.917163    -2780.917163  0.000634 -2.925714  0.001614
   scf:    4    -2780.917164    -2780.917164    -2780.917164  0.000026 -2.925718  0.000942

SCF Convergence by DM+H criterion
max |DM_out - DM_in|         :     0.0000263053
max |H_out - H_in|      (eV) :     0.0009420819
SCF cycle converged after 4 iterations

Using DM_out to compute the final energy and forces
No. of atoms with KB's overlaping orbs in proc 0. Max # of overlaps:      30     178

siesta: E_KS(eV) =            -2780.9172

siesta: Atomic forces (eV/Ang):
----------------------------------------
   Tot   -0.000527    0.007126    0.000350
----------------------------------------
   Max    0.046177
   Res    0.011161    sqrt( Sum f_i^2 / 3N )
----------------------------------------
   Max    0.046177    constrained

Stress tensor Voigt[x,y,z,yz,xz,xy] (kbar):        0.02        0.00        0.02       -0.02        0.01       -0.01
(Free)E + p*V (eV/cell)    -2780.9538
Target enthalpy (eV/cell)    -2780.9172

                     ====================================
                        Begin CG opt. move =    400
                     ====================================

outcell: Unit cell vectors (Ang):
       16.927466    0.000000    0.000000
        0.000000   18.916973    0.000000
        0.000000    0.000000   14.032973

outcell: Cell vector modules (Ang)   :   16.927466   18.916973   14.032973
outcell: Cell angles (23,13,12) (deg):     90.0000     90.0000     90.0000
outcell: Cell volume (Ang**3)        :   4493.5883
<dSpData1D:S at geom step 400
  <sparsity:sparsity for geom step 400
    nrows_g=262 nrows=262 sparsity=.8543 nnzs=58646, refcount: 7>
  <dData1D:(new from dSpData1D) n=58646, refcount: 1>
refcount: 1>
new_DM -- step:   401
Re-using DM from previous geometries...
Number of DMs in history: 1
 DM extrapolation coefficients: 
1   1.00000
New DM after history re-use:
<dSpData2D:SpM extrapolated using coords
  <sparsity:sparsity for geom step 400
    nrows_g=262 nrows=262 sparsity=.8543 nnzs=58646, refcount: 9>
  <dData2D:(temp array for extrapolation) n=58646 m=1, refcount: 1>
refcount: 1>
No. of atoms with KB's overlaping orbs in proc 0. Max # of overlaps:      30     178

InitMesh: MESH = 180 x 200 x 150 = 5400000
InitMesh: Mesh cutoff (required, used) =   300.000   308.929 Ry
New grid distribution [1]: sub = 2

        iscf     Eharris(eV)        E_KS(eV)     FreeEng(eV)     dDmax    Ef(eV) dHmax(eV)
   scf:    1    -2780.917295    -2780.917164    -2780.917164  0.000087 -2.925878  0.000668

SCF Convergence by DM+H criterion
max |DM_out - DM_in|         :     0.0000872167
max |H_out - H_in|      (eV) :     0.0006676545
SCF cycle converged after 1 iterations

Using DM_out to compute the final energy and forces
No. of atoms with KB's overlaping orbs in proc 0. Max # of overlaps:      30     178

siesta: E_KS(eV) =            -2780.9172

siesta: Atomic forces (eV/Ang):
----------------------------------------
   Tot   -0.000526    0.007118    0.000332
----------------------------------------
   Max    0.045867
   Res    0.011173    sqrt( Sum f_i^2 / 3N )
----------------------------------------
   Max    0.045867    constrained

Stress tensor Voigt[x,y,z,yz,xz,xy] (kbar):        0.02        0.00        0.02       -0.02        0.01       -0.01
(Free)E + p*V (eV/cell)    -2780.9544
Target enthalpy (eV/cell)    -2780.9172

cgvc: Finished line minimization  162.  Mean atomic displacement =    0.0055

outcoor: Final (unrelaxed) atomic coordinates (Ang):        
   -0.93964445    1.47413051   -0.02436678   1       1  C
    0.20788425    2.21194356    0.31015461   1       2  C
    1.26941068    1.34485253    0.58767095   2       3  N
    1.56144360   -1.19166895    0.58947202   1       4  C
    0.85447050   -2.39548759    0.35166145   1       5  C
   -0.52902180   -2.37732853   -0.02780454   1       6  C
   -1.23383297   -1.16089123   -0.17792957   1       7  C
   -0.54824576    0.07272078    0.04901682   1       8  C
    0.84642388    0.02727486    0.43356060   1       9  C
   -2.30888600    2.03224150   -0.37108516   1      10  C
    0.35589775    3.31274383    0.38431560   3      11  H
    2.22055651    1.64184491    0.83943368   3      12  H
   -2.31255720   -1.17020188   -0.47243643   3      13  H
   -1.05849236   -3.34568595   -0.20301437   3      14  H
    1.38181107   -3.37521117    0.46273682   3      15  H
    2.63949801   -1.20088295    0.88944614   3      16  H
   -4.55628131    3.12298230   -2.18392173   1      17  C
   -2.23584313    3.16926455   -1.41956441   1      18  C
   -3.27748831    5.14815188   -2.33631411   1      19  C
   -3.49455290    3.92156905   -1.56079920   2      20  N
   -4.75555941    2.19712382   -1.58214687   3      21  H
   -5.50639803    3.72388862   -2.21354936   3      22  H
   -4.30747697    2.80794991   -3.25021193   3      23  H
   -2.48162350    5.77287655   -1.84598340   3      24  H
   -2.95781377    4.95183876   -3.41154200   3      25  H
   -4.22649477    5.75056255   -2.36559598   3      26  H
   -2.95274960    1.19073892   -0.74759134   3      27  H
   -2.82243876    2.43554215    0.54859634   3      28  H
   -1.45245693    3.90762897   -1.09069169   3      29  H
   -1.87479244    2.74422963   -2.41362941   3      30  H

coxmol: Writing XMOL coordinates into file optimization.xyz                                                                                                                                                                                                                    

siesta: Program's energy decomposition (eV):
siesta: Ebs     =      -917.584466
siesta: Eions   =      4783.810632
siesta: Ena     =      1349.920561
siesta: Ekin    =      1918.722169
siesta: Enl     =      -151.653130
siesta: Eso     =         0.000000
siesta: Edftu   =         0.000000
siesta: DEna    =      -118.505048
siesta: DUscf   =        11.729041
siesta: DUext   =         0.000000
siesta: Ex      =      -923.923302
siesta: Ec      =       -83.396823
siesta: Exc     =     -1007.320125
siesta: EbV     =         0.000000
siesta: eta*DQ  =         0.000000
siesta: Emadel  =         0.000000
siesta: Emeta   =         0.000000
siesta: Emolmec =         0.000000
siesta: Ekinion =         0.000000
siesta: Eharris =     -2780.917295
siesta: Etot    =     -2780.917164
siesta: FreeEng =     -2780.917164

siesta: Final energy (eV):
siesta:  Band Struct. =    -917.584466
siesta:       Kinetic =    1918.722169
siesta:       Hartree =    7446.927758
siesta:         Edftu =       0.000000
siesta:       Eso     =       0.000000
siesta:    Ext. field =       0.000000
siesta:         Exch. =    -923.923302
siesta:         Corr. =     -83.396823
siesta:     Bulk bias =       0.000000
siesta:   Exch.-corr. =   -1007.320125
siesta:  Ion-electron =  -16597.845599
siesta:       Ion-ion =    5458.598632
siesta:       Ekinion =       0.000000
siesta: D3 dispersion =       0.000000
siesta:         Total =   -2780.917164
siesta:         Fermi =      -2.925878

siesta: Atomic forces (eV/Ang):
siesta:      1    0.006072    0.045867   -0.000131
siesta:      2   -0.005545   -0.031643    0.006781
siesta:      3   -0.017433    0.019798   -0.005967
siesta:      4    0.022832   -0.003435    0.009958
siesta:      5   -0.006226    0.006193    0.005744
siesta:      6    0.013574   -0.018118    0.015631
siesta:      7   -0.009355    0.007846   -0.006282
siesta:      8    0.011615   -0.000174   -0.013794
siesta:      9   -0.008376   -0.019731   -0.009072
siesta:     10    0.006388    0.005740   -0.021635
siesta:     11    0.000417    0.006568    0.004582
siesta:     12    0.016512   -0.008852    0.006747
siesta:     13   -0.003854    0.006676    0.000636
siesta:     14    0.002514   -0.006139   -0.006058
siesta:     15   -0.007500    0.021064    0.001986
siesta:     16   -0.021094   -0.014488   -0.013650
siesta:     17   -0.007097   -0.010219   -0.000472
siesta:     18    0.011983    0.011080   -0.002301
siesta:     19    0.004030    0.001680    0.017573
siesta:     20   -0.006019    0.010978   -0.005620
siesta:     21   -0.006309   -0.006890    0.009737
siesta:     22    0.008658   -0.008949   -0.007609
siesta:     23    0.005334   -0.011602    0.012042
siesta:     24   -0.006256    0.006619    0.002627
siesta:     25    0.007120   -0.006820   -0.002350
siesta:     26   -0.003584   -0.003616   -0.003095
siesta:     27    0.004470    0.006457   -0.008005
siesta:     28   -0.001133    0.003844    0.006672
siesta:     29   -0.010077   -0.003871   -0.001833
siesta:     30   -0.002187    0.001257    0.007490
siesta: ----------------------------------------
siesta:    Tot   -0.000526    0.007118    0.000332

siesta: Stress tensor (static) (eV/Ang**3):
siesta:     0.000011   -0.000005    0.000006
siesta:    -0.000005    0.000003   -0.000012
siesta:     0.000006   -0.000012    0.000011

siesta: Cell volume =       4493.588338 Ang**3

siesta: Pressure (static):
siesta:                Solid            Molecule  Units
siesta:          -0.00000009          0.00000002  Ry/Bohr**3
siesta:          -0.00000828          0.00000153  eV/Ang**3
siesta:          -0.01326080          0.00245472  kBar
(Free)E+ p_basis*V_orbitals  =       -2778.675817
(Free)Eharris+ p_basis*V_orbitals  =       -2778.675948

siesta: Electric dipole (a.u.)  =    0.588660    0.585885    0.011772
siesta: Electric dipole (Debye) =    1.496225    1.489172    0.029921

cite: Please see "optimization.bib" for an exhaustive BiBTeX file.
cite: Please clearly indicate Siesta version in published work: 5.2.1
cite: This calculation has made use of the following articles
cite: which are encouraged to be cited in a published work.
        Primary SIESTA paper
          DOI: www.doi.org/10.1088/0953-8984/14/11/302


timer: Elapsed wall time (sec) =   11347.682
timer: CPU execution times (sec):

Routine            Calls   Time/call    Tot.time        %
siesta                 1   13665.945   13665.945   100.00
Setup                  1       1.079       1.079     0.01
bands                  1       0.000       0.000     0.00
KSV_init               1       0.000       0.000     0.00
IterGeom             401      34.077   13664.853    99.99
geom_init            401       5.542    2222.154    16.26
state_init           401       0.015       5.834     0.04
hsparse              401       0.002       0.634     0.00
overlap              401       0.012       4.717     0.03
Setup_H0             401       2.708    1085.947     7.95
naefs                802       0.000       0.099     0.00
dnaefs               802       0.000       0.040     0.00
MolMec               802       0.000       0.002     0.00
kinefsm              802       0.011       8.669     0.06
nlefsm               802       0.028      22.201     0.16
DHSCF_Init           401       2.677    1073.334     7.85
DHSCF1               401       0.040      15.898     0.12
InitMesh             401       0.040      15.883     0.12
INITMESH             401       0.000       0.001     0.00
DHSCF2               401       2.637    1057.436     7.74
REMESH               401       0.133      53.174     0.39
REORD              12079       0.006      77.413     0.57
PHION                401       1.960     786.074     5.75
COMM_BSC           13331       0.005      64.307     0.47
POISON              3433       0.238     816.727     5.98
fft                 6866       0.089     614.482     4.50
setup_H             2631       3.626    9539.210    69.80
DHSCF               3032       4.028   12214.003    89.38
DHSCF3              3032       3.513   10652.286    77.95
rhoofd              3032       1.455    4411.209    32.28
XC                  3032       0.751    2275.607    16.65
GXC-CellXC          3032       0.724    2195.376    16.06
gridxc@cellXC       3032       0.724    2195.360    16.06
vmat                3032       0.712    2159.810    15.80
IterSCF             2230       3.913    8727.007    63.86
compute_dm          2230       0.141     315.095     2.31
diagon              2230       0.140     312.547     2.29
r-eigvec            2230       0.064     142.046     1.04
r-buildHS           2230       0.000       0.304     0.00
rdiag               2230       0.064     141.719     1.04
rdiag1              2230       0.003       7.485     0.05
rdiag2              2230       0.008      16.792     0.12
rdiag3              2230       0.051     113.573     0.83
rdiag4              2230       0.002       3.567     0.03
r-buildD            2230       0.075     168.348     1.23
MIXER               1829       0.000       0.667     0.00
PostSCF              401       6.772    2715.415    19.87
FINAL_HF             401       6.772    2715.400    19.87
DHSCF4               401       3.895    1561.697    11.43
dfscf                401       3.490    1399.379    10.24
overfsm              401       0.010       4.002     0.03
writeHSX             401       0.001       0.257     0.00
state_analysis       401       0.000       0.059     0.00
siesta_move          401       0.000       0.154     0.00
Analysis               1       0.001       0.001     0.00
optical                1       0.000       0.000     0.00
  

>> End of run:  18-JUN-2025  12:43:18
Job completed
Job completed
