Executable      : siesta
Version         : 5.2.1
Architecture    : x86_64
Compiler version: GNU-13.3.0
Compiler flags  : -march=nocona -mtune=haswell -ftree-vectorize -fPIC -fstack-protector-strong -fno-plt -O2 -ffunction-sections -pipe -isystem <prefix>/include -I<prefix>/_build_env/include -fdebug-prefix-map=<prefix>/work=/usr/local/src/conda/siesta-5.2.1 -fdebug-prefix-map=<prefix>=/usr/local/src/conda-prefix -I<prefix>/lib -fallow-argument-mismatch -O3
Parallelisations: none
NetCDF support
NetCDF-4 support
Lua support
DFT-D3 support

Runtime information:
* Directory : /home/samba/homes/convidat/proyecto1/bufotenin/optimization/run
* Running in serial mode.
>> Start of run:  18-JUN-2025   9:22:38

                           *********************** 
                           *  WELCOME TO SIESTA  * 
                           *********************** 

 NOTE: Siesta V5 introduces some new defaults for basis-set generation
 NOTE: which might lead to slightly different numerical results.
 NOTE: Please see the manual for full details and compatibility measures.


reinit: Reading from file optimization.fdf

reinit: -----------------------------------------------------------------------
reinit: System Name: 
reinit: -----------------------------------------------------------------------
reinit: System Label: optimization
reinit: -----------------------------------------------------------------------

initatom: Reading input for the pseudopotentials and atomic orbitals ----------
Species number:   1 Atomic number:    6 Label: C
Species number:   2 Atomic number:    7 Label: N
Species number:   3 Atomic number:    1 Label: H
Species number:   4 Atomic number:    8 Label: O

Ground state valence configuration (from tables):   2s02  2p02  3d00  4f00
Ground state valence configuration (from tables):   2s02  2p03  3d00  4f00
Ground state valence configuration (from tables):   1s01  2p00  3d00  4f00
Ground state valence configuration (from tables):   2s02  2p04  3d00  4f00

---- Processing specs for species: C
Reading pseudopotential information in PSML from:
  C.psml
PSML file version: 1.1
Using libxc ids:  101 130
GGA--PBE XC_GGA_X_PBE--XC_GGA_C_PBE pb
PSML uuid: 297821e0-be41-11e7-6802-e1ff7dfff095

---- Processing specs for species: N
Reading pseudopotential information in PSML from:
  N.psml
PSML file version: 1.1
Using libxc ids:  101 130
GGA--PBE XC_GGA_X_PBE--XC_GGA_C_PBE pb
PSML uuid: 31bde650-be41-11e7-78a7-66593edf4b14

---- Processing specs for species: H
Reading pseudopotential information in PSML from:
  H.psml
PSML file version: 1.1
Using libxc ids:  101 130
GGA--PBE XC_GGA_X_PBE--XC_GGA_C_PBE pb
PSML uuid: f95fa9b0-be40-11e7-634a-9594ffff953f

---- Processing specs for species: O
Reading pseudopotential information in PSML from:
  O.psml
PSML file version: 1.1
Using libxc ids:  101 130
GGA--PBE XC_GGA_X_PBE--XC_GGA_C_PBE pb
PSML uuid: 3cff85a0-be41-11e7-6c5c-1b1fe64d18ef

---- Pseudopotential check for C 

Pseudized shells:
2s( 2.00) rc: 1.20
2p( 2.00) rc: 1.26
Valence configuration for ps generation: 2s:2p: Total charge:   4.000000

---- Pseudopotential check for N 

Pseudized shells:
2s( 2.00) rc: 1.21
2p( 3.00) rc: 1.36
Valence configuration for ps generation: 2s:2p: Total charge:   5.000000

---- Pseudopotential check for H 

Pseudized shells:
1s( 1.00) rc: 1.01
2p( 0.00) rc: 0.71
Valence configuration for ps generation: 1s: Total charge:   1.000000

---- Pseudopotential check for O 

Pseudized shells:
2s( 2.00) rc: 1.36
2p( 4.00) rc: 1.46
3d( 0.00) rc: 1.26
Valence configuration for ps generation: 2s:2p: Total charge:   6.000000
For C, standard SIESTA heuristics set lmxkb to 3
 (one more than the basis l, including polarization orbitals).
Use PS.lmax or PS.KBprojectors blocks to override.
For N, standard SIESTA heuristics set lmxkb to 3
 (one more than the basis l, including polarization orbitals).
Use PS.lmax or PS.KBprojectors blocks to override.
For H, standard SIESTA heuristics set lmxkb to 2
 (one more than the basis l, including polarization orbitals).
Use PS.lmax or PS.KBprojectors blocks to override.
For O, standard SIESTA heuristics set lmxkb to 3
 (one more than the basis l, including polarization orbitals).
Use PS.lmax or PS.KBprojectors blocks to override.
C pseudopotential only contains V_ls up to l=1 -- lmxkb reset.
N pseudopotential only contains V_ls up to l=1 -- lmxkb reset.
H pseudopotential only contains V_ls up to l=1 -- lmxkb reset.
O pseudopotential only contains V_ls up to l=2 -- lmxkb reset.

<basis_specs>
===============================================================================
C                    Z=   6    Mass=  12.011        Charge= 0.17977+309
Lmxo=2 Lmxkb= 1    BasisType=split      Semic=F
L=0  Nsemic=0  Cnfigmx=2
          i=1  nzeta=2  polorb=0  (2s)
            splnorm:   0.15000    
               vcte:    40.000    
               rinn:  -0.90000    
               qcoe:    0.0000    
               qyuk:    0.0000    
               qwid:   0.10000E-01
                rcs:    0.0000      0.0000    
            lambdas:    1.0000      1.0000    
L=1  Nsemic=0  Cnfigmx=2
          i=1  nzeta=2  polorb=1  (2p)  (to be polarized perturbatively)
            splnorm:   0.15000    
               vcte:    40.000    
               rinn:  -0.90000    
               qcoe:    0.0000    
               qyuk:    0.0000    
               qwid:   0.10000E-01
                rcs:    0.0000      0.0000    
            lambdas:    1.0000      1.0000    
L=2  Nsemic=0  Cnfigmx=3
          i=1  nzeta=0  polorb=0  (3d)  (perturbative polarization orbital) (from 2p)
-------------------------------------------------------------------------------
L=0  Nkbl=1  erefs: 0.17977+309
L=1  Nkbl=1  erefs: 0.17977+309
===============================================================================
</basis_specs>

Using PAO.SplitTailNorm
atom: Called for C                     (Z =   6)
NOTE: C pseudopotential has channels up to l= 1
NOTE: PAOs with higher l will be generated with V_local
Maximum radius (at nrval) set to   50.00000 8518

read_vps: Pseudopotential generation method:
read_vps: ONCVPSP-3.Hamann's oncvpsp                        
Valence charge in pseudo generation:    4.00000

read_vps: Pseudopotential includes a core correction:
read_vps: Pseudo-core for xc-correction

xc_check: Exchange-correlation functional:
xc_check: GGA Perdew, Burke & Ernzerhof 1996
Got Vlocal (oncv-fit) from psml data
Choosing vlocal chloc cutoff:  4.122282
qtot up to nchloc:    4.00001153
atom: Maximum radius for chlocal:    4.12228
atom: Maximum radius for r*vlocal+2*Zval:    4.12228
Reading KB projs from C psml data
Using scalar-relativistic projectors in PSML file

PSML: Kleinman-Bylander projectors: 
   l= 0   rc=  1.219773   Ekb= 12.963096
   l= 0   rc=  1.219773   Ekb=  0.771007
   l= 1   rc=  1.278952   Ekb= -8.399923
   l= 1   rc=  1.278952   Ekb= -1.755033

PSML: Total number of  Kleinman-Bylander projectors:   8
atom: -------------------------------------------------------------------------

atom: SANKEY-TYPE ORBITALS:
atom: Selected multiple-zeta basis: split     

SPLIT: Orbitals with angular momentum L= 0

SPLIT: Basis orbitals for state 2s

SPLIT: PAO cut-off radius determined from an
SPLIT: energy shift=  0.000735 Ry
Split based on tail norm

   izeta = 1
                 lambda =    1.000000
                     rc =    5.865727
                 energy =   -1.009782
                kinetic =    0.907850
    potential(screened) =   -1.917632
       potential(ionic) =   -5.443189

   izeta = 2
                 rmatch =    3.302919
              splitnorm =    0.150000
                 energy =   -0.812047
                kinetic =    1.580868
    potential(screened) =   -2.392915
       potential(ionic) =   -6.200698

SPLIT: Orbitals with angular momentum L= 1

SPLIT: Basis orbitals for state 2p

SPLIT: PAO cut-off radius determined from an
SPLIT: energy shift=  0.000735 Ry
Split based on tail norm

   izeta = 1
                 lambda =    1.000000
                     rc =    7.564822
                 energy =   -0.387582
                kinetic =    2.372253
    potential(screened) =   -2.759835
       potential(ionic) =   -6.120604

   izeta = 2
                 rmatch =    4.252389
              splitnorm =    0.150000
                 energy =   -0.314961
                kinetic =    3.225377
    potential(screened) =   -3.540338
       potential(ionic) =   -7.207912
*Note: V_local used for l= 2

** Using vlocal for PAOs with L= 2

POLgen: Perturbative polarization orbital with L=  2

POLgen: Polarization orbital for state 2p
*Note: V_local used for lpol= 2

** Using vlocal for PAOs with L= 2
Split based on tail norm

   izeta = 1
                     rc =    7.564822
                 energy =    0.923681
                kinetic =    1.875515
    potential(screened) =   -0.951834
       potential(ionic) =   -3.587740
atom: Total number of Sankey-type orbitals: 13

atm_pop: Valence configuration (for local Pseudopot. screening):
 2s( 2.00)                                                            
 2p( 2.00)                                                            
 3d( 0.00)                                                            
Vna: chval, zval:    4.00000   4.00000

Vna:  Cut-off radius for the neutral-atom potential:   7.564822
comcore: Pseudo-core radius Rcore=  1.671741

atom: _________________________________________________________________________

<basis_specs>
===============================================================================
N                    Z=   7    Mass=  14.007        Charge= 0.17977+309
Lmxo=2 Lmxkb= 1    BasisType=split      Semic=F
L=0  Nsemic=0  Cnfigmx=2
          i=1  nzeta=2  polorb=0  (2s)
            splnorm:   0.15000    
               vcte:    40.000    
               rinn:  -0.90000    
               qcoe:    0.0000    
               qyuk:    0.0000    
               qwid:   0.10000E-01
                rcs:    0.0000      0.0000    
            lambdas:    1.0000      1.0000    
L=1  Nsemic=0  Cnfigmx=2
          i=1  nzeta=2  polorb=1  (2p)  (to be polarized perturbatively)
            splnorm:   0.15000    
               vcte:    40.000    
               rinn:  -0.90000    
               qcoe:    0.0000    
               qyuk:    0.0000    
               qwid:   0.10000E-01
                rcs:    0.0000      0.0000    
            lambdas:    1.0000      1.0000    
L=2  Nsemic=0  Cnfigmx=3
          i=1  nzeta=0  polorb=0  (3d)  (perturbative polarization orbital) (from 2p)
-------------------------------------------------------------------------------
L=0  Nkbl=1  erefs: 0.17977+309
L=1  Nkbl=1  erefs: 0.17977+309
===============================================================================
</basis_specs>

Using PAO.SplitTailNorm
atom: Called for N                     (Z =   7)
NOTE: N pseudopotential has channels up to l= 1
NOTE: PAOs with higher l will be generated with V_local
Maximum radius (at nrval) set to   50.00000 8518

read_vps: Pseudopotential generation method:
read_vps: ONCVPSP-3.Hamann's oncvpsp                        
Valence charge in pseudo generation:    5.00000

read_vps: Pseudopotential includes a core correction:
read_vps: Pseudo-core for xc-correction

xc_check: Exchange-correlation functional:
xc_check: GGA Perdew, Burke & Ernzerhof 1996
Got Vlocal (oncv-fit) from psml data
Choosing vlocal chloc cutoff:  6.038618
qtot up to nchloc:    4.99995109
atom: Maximum radius for chlocal:    6.03862
atom: Maximum radius for r*vlocal+2*Zval:    6.03862
Reading KB projs from N psml data
Using scalar-relativistic projectors in PSML file

PSML: Kleinman-Bylander projectors: 
   l= 0   rc=  1.214864   Ekb= 14.989018
   l= 0   rc=  1.221004   Ekb=  1.272610
   l= 1   rc=  1.375180   Ekb= -8.587810
   l= 1   rc=  1.375180   Ekb= -2.013976

PSML: Total number of  Kleinman-Bylander projectors:   8
atom: -------------------------------------------------------------------------

atom: SANKEY-TYPE ORBITALS:
atom: Selected multiple-zeta basis: split     

SPLIT: Orbitals with angular momentum L= 0

SPLIT: Basis orbitals for state 2s

SPLIT: PAO cut-off radius determined from an
SPLIT: energy shift=  0.000735 Ry
Split based on tail norm

   izeta = 1
                 lambda =    1.000000
                     rc =    5.128853
                 energy =   -1.364951
                kinetic =    1.219328
    potential(screened) =   -2.584278
       potential(ionic) =   -8.061064

   izeta = 2
                 rmatch =    2.799004
              splitnorm =    0.150000
                 energy =   -1.108465
                kinetic =    2.068776
    potential(screened) =   -3.177241
       potential(ionic) =   -9.112461

SPLIT: Orbitals with angular momentum L= 1

SPLIT: Basis orbitals for state 2p

SPLIT: PAO cut-off radius determined from an
SPLIT: energy shift=  0.000735 Ry
Split based on tail norm

   izeta = 1
                 lambda =    1.000000
                     rc =    6.614864
                 energy =   -0.520217
                kinetic =    3.392575
    potential(screened) =   -3.912792
       potential(ionic) =   -9.170860

   izeta = 2
                 rmatch =    3.582433
              splitnorm =    0.150000
                 energy =   -0.423250
                kinetic =    4.550527
    potential(screened) =   -4.973778
       potential(ionic) =  -10.717060
*Note: V_local used for l= 2

** Using vlocal for PAOs with L= 2

POLgen: Perturbative polarization orbital with L=  2

POLgen: Polarization orbital for state 2p
*Note: V_local used for lpol= 2

** Using vlocal for PAOs with L= 2
Split based on tail norm

   izeta = 1
                     rc =    6.614864
                 energy =    1.365983
                kinetic =    2.607373
    potential(screened) =   -1.241390
       potential(ionic) =   -5.257349
atom: Total number of Sankey-type orbitals: 13

atm_pop: Valence configuration (for local Pseudopot. screening):
 2s( 2.00)                                                            
 2p( 3.00)                                                            
 3d( 0.00)                                                            
Vna: chval, zval:    5.00000   5.00000

Vna:  Cut-off radius for the neutral-atom potential:   6.614864
comcore: Pseudo-core radius Rcore=  1.572221

atom: _________________________________________________________________________

<basis_specs>
===============================================================================
H                    Z=   1    Mass=  1.0080        Charge= 0.17977+309
Lmxo=1 Lmxkb= 1    BasisType=split      Semic=F
L=0  Nsemic=0  Cnfigmx=1
          i=1  nzeta=2  polorb=1  (1s)  (to be polarized perturbatively)
            splnorm:   0.15000    
               vcte:    40.000    
               rinn:  -0.90000    
               qcoe:    0.0000    
               qyuk:    0.0000    
               qwid:   0.10000E-01
                rcs:    0.0000      0.0000    
            lambdas:    1.0000      1.0000    
L=1  Nsemic=0  Cnfigmx=2
          i=1  nzeta=0  polorb=0  (2p)  (perturbative polarization orbital) (from 1s)
-------------------------------------------------------------------------------
L=0  Nkbl=1  erefs: 0.17977+309
L=1  Nkbl=1  erefs: 0.17977+309
===============================================================================
</basis_specs>

Using PAO.SplitTailNorm
atom: Called for H                     (Z =   1)
Maximum radius (at nrval) set to   50.00000 8518

read_vps: Pseudopotential generation method:
read_vps: ONCVPSP-3.Hamann's oncvpsp                        
Valence charge in pseudo generation:    1.00000

xc_check: Exchange-correlation functional:
xc_check: GGA Perdew, Burke & Ernzerhof 1996
Got Vlocal (oncv-fit) from psml data
Choosing vlocal chloc cutoff:  1.926399
qtot up to nchloc:    0.99999831
atom: Maximum radius for chlocal:    1.92640
atom: Maximum radius for r*vlocal+2*Zval:    1.92640
Reading KB projs from H psml data
Using scalar-relativistic projectors in PSML file

PSML: Kleinman-Bylander projectors: 
   l= 0   rc=  1.022342   Ekb= -3.402247
   l= 0   rc=  1.022342   Ekb= -1.068968
   l= 1   rc=  0.714575   Ekb= -1.006642

PSML: Total number of  Kleinman-Bylander projectors:   5
atom: -------------------------------------------------------------------------

atom: SANKEY-TYPE ORBITALS:
atom: Selected multiple-zeta basis: split     

SPLIT: Orbitals with angular momentum L= 0

SPLIT: Basis orbitals for state 1s

SPLIT: PAO cut-off radius determined from an
SPLIT: energy shift=  0.000735 Ry
Split based on tail norm

   izeta = 1
                 lambda =    1.000000
                     rc =    7.238756
                 energy =   -0.476315
                kinetic =    0.887622
    potential(screened) =   -1.363936
       potential(ionic) =   -1.882865

   izeta = 2
                 rmatch =    4.044510
              splitnorm =    0.150000
                 energy =   -0.376652
                kinetic =    1.480380
    potential(screened) =   -1.857033
       potential(ionic) =   -2.405174

POLgen: Perturbative polarization orbital with L=  1

POLgen: Polarization orbital for state 1s
Split based on tail norm

   izeta = 1
                     rc =    7.238756
                 energy =    0.508786
                kinetic =    1.081322
    potential(screened) =   -0.572537
       potential(ionic) =   -1.035092
atom: Total number of Sankey-type orbitals:  5

atm_pop: Valence configuration (for local Pseudopot. screening):
 1s( 1.00)                                                            
 2p( 0.00)                                                            
Vna: chval, zval:    1.00000   1.00000

Vna:  Cut-off radius for the neutral-atom potential:   7.238756

atom: _________________________________________________________________________

<basis_specs>
===============================================================================
O                    Z=   8    Mass=  15.999        Charge= 0.17977+309
Lmxo=2 Lmxkb= 2    BasisType=split      Semic=F
L=0  Nsemic=0  Cnfigmx=2
          i=1  nzeta=2  polorb=0  (2s)
            splnorm:   0.15000    
               vcte:    40.000    
               rinn:  -0.90000    
               qcoe:    0.0000    
               qyuk:    0.0000    
               qwid:   0.10000E-01
                rcs:    0.0000      0.0000    
            lambdas:    1.0000      1.0000    
L=1  Nsemic=0  Cnfigmx=2
          i=1  nzeta=2  polorb=1  (2p)  (to be polarized perturbatively)
            splnorm:   0.15000    
               vcte:    40.000    
               rinn:  -0.90000    
               qcoe:    0.0000    
               qyuk:    0.0000    
               qwid:   0.10000E-01
                rcs:    0.0000      0.0000    
            lambdas:    1.0000      1.0000    
L=2  Nsemic=0  Cnfigmx=3
          i=1  nzeta=0  polorb=0  (3d)  (perturbative polarization orbital) (from 2p)
-------------------------------------------------------------------------------
L=0  Nkbl=1  erefs: 0.17977+309
L=1  Nkbl=1  erefs: 0.17977+309
L=2  Nkbl=1  erefs: 0.17977+309
===============================================================================
</basis_specs>

Using PAO.SplitTailNorm
atom: Called for O                     (Z =   8)
Maximum radius (at nrval) set to   50.00000 8518

read_vps: Pseudopotential generation method:
read_vps: ONCVPSP-3.Hamann's oncvpsp                        
Valence charge in pseudo generation:    6.00000

read_vps: Pseudopotential includes a core correction:
read_vps: Pseudo-core for xc-correction

xc_check: Exchange-correlation functional:
xc_check: GGA Perdew, Burke & Ernzerhof 1996
Got Vlocal (oncv-fit) from psml data
Choosing vlocal chloc cutoff:  6.020499
qtot up to nchloc:    6.00001015
atom: Maximum radius for chlocal:    6.02050
atom: Maximum radius for r*vlocal+2*Zval:    6.02050
Reading KB projs from O psml data
Using scalar-relativistic projectors in PSML file

PSML: Kleinman-Bylander projectors: 
   l= 0   rc=  1.372412   Ekb= 12.113471
   l= 0   rc=  1.372412   Ekb=  1.648048
   l= 1   rc=  1.474132   Ekb= -9.434259
   l= 1   rc=  1.474132   Ekb= -2.298541
   l= 2   rc=  1.277664   Ekb= -2.663910

PSML: Total number of  Kleinman-Bylander projectors:  13
atom: -------------------------------------------------------------------------

atom: SANKEY-TYPE ORBITALS:
atom: Selected multiple-zeta basis: split     

SPLIT: Orbitals with angular momentum L= 0

SPLIT: Basis orbitals for state 2s

SPLIT: PAO cut-off radius determined from an
SPLIT: energy shift=  0.000735 Ry
Split based on tail norm

   izeta = 1
                 lambda =    1.000000
                     rc =    4.566021
                 energy =   -1.760280
                kinetic =    1.535743
    potential(screened) =   -3.296022
       potential(ionic) =  -11.142033

   izeta = 2
                 rmatch =    2.434474
              splitnorm =    0.150000
                 energy =   -1.441584
                kinetic =    2.530209
    potential(screened) =   -3.971793
       potential(ionic) =  -12.502519

SPLIT: Orbitals with angular momentum L= 1

SPLIT: Basis orbitals for state 2p

SPLIT: PAO cut-off radius determined from an
SPLIT: energy shift=  0.000735 Ry
Split based on tail norm

   izeta = 1
                 lambda =    1.000000
                     rc =    5.912921
                 energy =   -0.662875
                kinetic =    4.463269
    potential(screened) =   -5.126144
       potential(ionic) =  -12.659411

   izeta = 2
                 rmatch =    3.103756
              splitnorm =    0.150000
                 energy =   -0.538095
                kinetic =    5.926477
    potential(screened) =   -6.464572
       potential(ionic) =  -14.688886

POLgen: Perturbative polarization orbital with L=  2

POLgen: Polarization orbital for state 2p
Split based on tail norm

   izeta = 1
                     rc =    5.912921
                 energy =    1.865729
                kinetic =    3.536681
    potential(screened) =   -1.670952
       potential(ionic) =   -7.378590
atom: Total number of Sankey-type orbitals: 13

atm_pop: Valence configuration (for local Pseudopot. screening):
 2s( 2.00)                                                            
 2p( 4.00)                                                            
 3d( 0.00)                                                            
Vna: chval, zval:    6.00000   6.00000

Vna:  Cut-off radius for the neutral-atom potential:   5.912921
comcore: Pseudo-core radius Rcore=  1.354557

atom: _________________________________________________________________________

prinput: Basis input 

PAO.BasisType split     

%block ChemicalSpeciesLabel
    1    6 C                       # Species index, atomic number, species label
    2    7 N                       # Species index, atomic number, species label
    3    1 H                       # Species index, atomic number, species label
    4    8 O                       # Species index, atomic number, species label
%endblock ChemicalSpeciesLabel

%block PAO.Basis                 # Define Basis set
# WARNING: This information might be incomplete!
C                     2                    # Species label, number of l-shells
 n=2   0   2                         # n, l, Nzeta 
   5.866      3.303   
   1.000      1.000   
 n=2   1   2 P   1                   # n, l, Nzeta, Polarization, NzetaPol
   7.565      4.252   
   1.000      1.000   
N                     2                    # Species label, number of l-shells
 n=2   0   2                         # n, l, Nzeta 
   5.129      2.799   
   1.000      1.000   
 n=2   1   2 P   1                   # n, l, Nzeta, Polarization, NzetaPol
   6.615      3.582   
   1.000      1.000   
H                     1                    # Species label, number of l-shells
 n=1   0   2 P   1                   # n, l, Nzeta, Polarization, NzetaPol
   7.239      4.045   
   1.000      1.000   
O                     2                    # Species label, number of l-shells
 n=2   0   2                         # n, l, Nzeta 
   4.566      2.434   
   1.000      1.000   
 n=2   1   2 P   1                   # n, l, Nzeta, Polarization, NzetaPol
   5.913      3.104   
   1.000      1.000   
%endblock PAO.Basis

prinput: ----------------------------------------------------------------------

Dumping basis to NetCDF file C.ion.nc
Dumping basis to NetCDF file N.ion.nc
Dumping basis to NetCDF file H.ion.nc
Dumping basis to NetCDF file O.ion.nc
coor:   Atomic-coordinates input format  =     Cartesian coordinates
coor:                                          (in Angstroms)

siesta: Atomic coordinates (Bohr) and species
siesta:     -1.90755   3.23941   0.00651  1        1
siesta:      0.64745   4.60007   0.00755  1        2
siesta:      2.66900   2.69498   0.03342  2        3
siesta:      2.31085  -2.25659  -0.01324  1        4
siesta:      0.59617  -4.28750  -0.02832  1        5
siesta:     -2.00474  -3.85209  -0.01203  1        6
siesta:     -2.91931  -1.36761  -0.00334  1        7
siesta:     -1.19722   0.68490  -0.00149  1        8
siesta:      1.44920   0.25005   0.00301  1        9
siesta:     -4.51880   4.34225   0.01272  1       10
siesta:      0.63451   6.48999   0.01261  3       11
siesta:      4.55758   2.74619   0.07594  3       12
siesta:     -4.78440  -1.06272   0.00127  3       13
siesta:     -3.82911  -6.07069  -0.00338  4       14
siesta:      1.23593  -6.06560  -0.05179  3       15
siesta:      4.16826  -2.60020  -0.01407  3       16
siesta:     -2.88336  -8.60991   0.00071  3       17
siesta:     -6.92591   4.44012  -3.87934  1       18
siesta:     -4.61385   6.74090  -1.49471  1       19
siesta:     -6.14449   8.97463  -4.49359  1       20
siesta:     -6.40748   6.90349  -2.57628  2       21
siesta:     -7.43137   2.98350  -2.45380  3       22
siesta:     -8.53343   4.61969  -5.21946  3       23
siesta:     -5.24480   3.75685  -4.93781  3       24
siesta:     -5.71840  10.78504  -3.51878  3       25
siesta:     -4.57263   8.57207  -5.82758  3       26
siesta:     -7.91181   9.23301  -5.59957  3       27
siesta:     -4.61026   8.32751  -0.46820  3       28
siesta:     -3.30485   6.88222  -2.85030  3       29
siesta:     -5.72319   3.09159  -0.73317  3       30
siesta:     -5.03500   4.70683   1.79364  3       31

siesta: System type = molecule  

initatomlists: Number of atoms, orbitals, and projectors:     31   275   205

coxmol: Writing XMOL coordinates into file optimization.xyz                                                                                                                                                                                                                    

siesta: ******************** Simulation parameters ****************************
siesta:
siesta: The following are some of the parameters of the simulation.
siesta: A complete list of the parameters used, including default values,
siesta: can be found in file out.fdf
siesta:
redata: Spin configuration                          = none
redata: Number of spin components                   = 1
redata: Time-Reversal Symmetry                      = T
redata: Spin spiral                                 = F
redata: Long output                                 =   F
redata: Number of Atomic Species                    =        4
redata: Charge density info will appear in .RHO file
redata: Write Mulliken charges (when)               = none
redata: Write Mulliken Pop.                         = NO
redata: Write Hirshfeld charges (when)              = none
redata: Write Voronoi charges (when)                = none
redata: Write spin charge (when)                    = none
redata: Matel table size (NRTAB)                    =     1024
redata: Mesh Cutoff                                 =   300.0000 Ry
redata: Net charge of the system                    =     0.0000 |e|
redata: Min. number of SCF Iter                     =        0
redata: Max. number of SCF Iter                     =     1000
redata: SCF convergence failure will abort job
redata: SCF mix quantity                            = Hamiltonian
redata: Mix DM or H after convergence               =   F
redata: Recompute H after scf cycle                 =   F
redata: Mix DM in first SCF step                    =   T
redata: Write Pulay info on disk                    =   F
redata: New DM Occupancy tolerance                  = 0.000000000001
redata: No kicks to SCF
redata: DM Mixing Weight for Kicks                  =     0.5000
redata: Require Harris convergence for SCF          =   F
redata: Harris energy tolerance for SCF             =     0.000100 eV
redata: Require DM convergence for SCF              =   T
redata: DM tolerance for SCF                        =     0.000100
redata: Require EDM convergence for SCF             =   F
redata: EDM tolerance for SCF                       =     0.001000 eV
redata: Require H convergence for SCF               =   T
redata: Hamiltonian tolerance for SCF               =     0.001000 eV
redata: Require (free) Energy convergence for SCF   =   F
redata: (free) Energy tolerance for SCF             =     0.000100 eV
redata: Using DFT-D3 dispersion                     =   F
redata: Using Saved Data (generic)                  =   F
redata: Use continuation files for DM               =   T
redata: Neglect nonoverlap interactions             =   F
redata: Method of Calculation                       = Diagonalization
redata: Electronic Temperature                      =   299.9863 K
redata: Fix the spin of the system                  =   F
redata: Max. number of TDED Iter                    =        1
redata: Number of TDED substeps                     =        3
redata: Dynamics option                             = CG coord. optimization
redata: Variable cell                               =   F
redata: Use continuation files for CG               =   F
redata: Max atomic displ per move                   =     0.1058 Ang
redata: Maximum number of optimization moves        =      400
redata: Force tolerance                             =     0.0050 eV/Ang
mix.SCF: Pulay mixing                            = Pulay
mix.SCF:    Variant                              = stable
mix.SCF:    History steps                        = 2
mix.SCF:    Linear mixing weight                 =     0.250000
mix.SCF:    Mixing weight                        =     0.250000
mix.SCF:    SVD condition                        = 0.1000E-07
redata: Save all siesta data in one NC              =   F
redata: ***********************************************************************

%block SCF.Mixers
  Pulay
%endblock SCF.Mixers

%block SCF.Mixer.Pulay
  # Mixing method
  method pulay
  variant stable

  # Mixing options
  weight 0.2500
  weight.linear 0.2500
  history 2
%endblock SCF.Mixer.Pulay

DM_history_depth set to one: no extrapolation allowed by default for geometry relaxation
Size of DM history Fstack: 1
Total number of electrons:    80.000000
Total ionic charge:    80.000000

siesta: k-grid: Number of k-points = 1
siesta: k-point is Gamma-only

diag: Algorithm                                     = D&C
diag: Used triangular part                          = Lower
diag: Absolute tolerance                            =  0.100E-15
diag: Orthogonalization factor                      =  0.100E-05
diag: Memory factor                                 =  1.0000


ts: **************************************************************
ts: Save H and S matrices                           =    F
ts: Save DM and EDM matrices                        =    F
ts: Only save the overlap matrix S                  =    F
ts: **************************************************************

************************ Begin: TS CHECKS AND WARNINGS ************************
************************ End: TS CHECKS AND WARNINGS **************************


                     ====================================
                        Begin CG opt. move =      0
                     ====================================

outcell: Unit cell vectors (Ang):
       16.927466    0.000000    0.000000
        0.000000   20.263367    0.000000
        0.000000    0.000000   14.032973

outcell: Cell vector modules (Ang)   :   16.927466   20.263367   14.032973
outcell: Cell angles (23,13,12) (deg):     90.0000     90.0000     90.0000
outcell: Cell volume (Ang**3)        :   4813.4144
<dSpData1D:S at geom step 0
  <sparsity:sparsity for geom step 0
    nrows_g=275 nrows=275 sparsity=.8743 nnzs=66119, refcount: 7>
  <dData1D:(new from dSpData1D) n=66119, refcount: 1>
refcount: 1>
new_DM -- step:     1
Initializing Density Matrix...

Attempting to read DM from file... Failed...
DM filled with atomic data:
<dSpData2D:DM initialized from atoms
  <sparsity:sparsity for geom step 0
    nrows_g=275 nrows=275 sparsity=.8743 nnzs=66119, refcount: 8>
  <dData2D:DM n=66119 m=1, refcount: 1>
refcount: 1>
No. of atoms with KB's overlaping orbs in proc 0. Max # of overlaps:      31     202

InitMesh: MESH = 180 x 216 x 150 = 5832000
InitMesh: Mesh cutoff (required, used) =   300.000   312.509 Ry
New grid distribution [1]: sub = 2

stepf: Fermi-Dirac step function

siesta: Program's energy decomposition (eV):
siesta: Ebs     =      -689.702133
siesta: Eions   =      5439.494713
siesta: Ena     =      1439.735018
siesta: Ekin    =      2429.057298
siesta: Enl     =      -254.764468
siesta: Eso     =         0.000000
siesta: Edftu   =         0.000000
siesta: DEna    =      -249.857390
siesta: DUscf   =        38.305896
siesta: DUext   =         0.000000
siesta: Ex      =     -1074.963081
siesta: Ec      =       -93.205310
siesta: Exc     =     -1168.168391
siesta: EbV     =         0.000000
siesta: eta*DQ  =         0.000000
siesta: Emadel  =         0.000000
siesta: Emeta   =         0.000000
siesta: Emolmec =         0.000000
siesta: Ekinion =         0.000000
siesta: Eharris =     -3160.829056
siesta: Etot    =     -3205.186749
siesta: FreeEng =     -3205.186749

        iscf     Eharris(eV)        E_KS(eV)     FreeEng(eV)     dDmax    Ef(eV) dHmax(eV)
   scf:    1    -3160.829056    -3205.186749    -3205.186749  1.947827 -7.299782 15.241061
timer: Routine,Calls,Time,% = IterSCF        1       4.120  16.99
   scf:    2    -3222.794338    -3215.629356    -3215.629356  0.287171 -6.096906  6.612289
   scf:    3    -3219.332612    -3218.188643    -3218.188643  0.174030 -4.280290  1.336972
   scf:    4    -3218.422026    -3218.325080    -3218.325080  0.039805 -4.176411  0.599715
   scf:    5    -3218.402049    -3218.367568    -3218.367568  0.026058 -3.991127  0.278693
   scf:    6    -3218.383827    -3218.376749    -3218.376749  0.018035 -3.929597  0.089845
   scf:    7    -3218.378099    -3218.377507    -3218.377507  0.005961 -3.900354  0.032486
   scf:    8    -3218.377777    -3218.377653    -3218.377653  0.002370 -3.888081  0.011234
   scf:    9    -3218.377739    -3218.377698    -3218.377698  0.000718 -3.886729  0.006224
   scf:   10    -3218.377740    -3218.377721    -3218.377721  0.000763 -3.885979  0.002447
   scf:   11    -3218.377725    -3218.377723    -3218.377723  0.000243 -3.886059  0.001443
   scf:   12    -3218.377724    -3218.377724    -3218.377724  0.000116 -3.886187  0.000781
   scf:   13    -3218.377724    -3218.377724    -3218.377724  0.000052 -3.886275  0.000354

SCF Convergence by DM+H criterion
max |DM_out - DM_in|         :     0.0000524591
max |H_out - H_in|      (eV) :     0.0003544402
SCF cycle converged after 13 iterations

Using DM_out to compute the final energy and forces
No. of atoms with KB's overlaping orbs in proc 0. Max # of overlaps:      31     202

siesta: E_KS(eV) =            -3218.3777

siesta: E_KS - E_eggbox =     -3218.3777

siesta: Atomic forces (eV/Ang):
----------------------------------------
   Tot   -0.008792    0.013969    0.000168
----------------------------------------
   Max   29.932416
   Res    5.251745    sqrt( Sum f_i^2 / 3N )
----------------------------------------
   Max   29.932416    constrained

Stress tensor Voigt[x,y,z,yz,xz,xy] (kbar):      -16.55       -1.95       -8.97       -1.01       -6.41        2.21
(Free)E + p*V (eV/cell)    -3190.8741
Target enthalpy (eV/cell)    -3218.3777

                     ====================================
                        Begin CG opt. move =      1
                     ====================================

outcell: Unit cell vectors (Ang):
       16.927466    0.000000    0.000000
        0.000000   20.263367    0.000000
        0.000000    0.000000   14.032973

outcell: Cell vector modules (Ang)   :   16.927466   20.263367   14.032973
outcell: Cell angles (23,13,12) (deg):     90.0000     90.0000     90.0000
outcell: Cell volume (Ang**3)        :   4813.4144
<dSpData1D:S at geom step 1
  <sparsity:sparsity for geom step 1
    nrows_g=275 nrows=275 sparsity=.8737 nnzs=66077, refcount: 7>
  <dData1D:(new from dSpData1D) n=66077, refcount: 1>
refcount: 1>
new_DM -- step:     2
Re-using DM from previous geometries...
Number of DMs in history: 1
 DM extrapolation coefficients: 
1   1.00000
New DM after history re-use:
<dSpData2D:SpM extrapolated using coords
  <sparsity:sparsity for geom step 1
    nrows_g=275 nrows=275 sparsity=.8737 nnzs=66077, refcount: 9>
  <dData2D:(temp array for extrapolation) n=66077 m=1, refcount: 1>
refcount: 1>
No. of atoms with KB's overlaping orbs in proc 0. Max # of overlaps:      31     201

InitMesh: MESH = 180 x 216 x 150 = 5832000
InitMesh: Mesh cutoff (required, used) =   300.000   312.509 Ry
New grid distribution [1]: sub = 2

        iscf     Eharris(eV)        E_KS(eV)     FreeEng(eV)     dDmax    Ef(eV) dHmax(eV)
   scf:    1    -3223.669643    -3222.130328    -3222.130328  0.460111 -3.787498  1.089943
   scf:    2    -3221.548092    -3221.986652    -3221.986652  0.057012 -3.956831  2.013595
   scf:    3    -3222.244869    -3222.184216    -3222.184216  0.033736 -4.050023  0.089243
   scf:    4    -3222.185302    -3222.184795    -3222.184795  0.001562 -4.055433  0.049137
   scf:    5    -3222.185257    -3222.185061    -3222.185061  0.001880 -4.060202  0.011758
   scf:    6    -3222.185089    -3222.185076    -3222.185076  0.000474 -4.061163  0.004986
   scf:    7    -3222.185084    -3222.185081    -3222.185081  0.000415 -4.062279  0.002224
   scf:    8    -3222.185082    -3222.185081    -3222.185081  0.000184 -4.062842  0.001300
   scf:    9    -3222.185082    -3222.185082    -3222.185082  0.000114 -4.063150  0.000750
   scf:   10    -3222.185082    -3222.185082    -3222.185082  0.000054 -4.063242  0.000523

SCF Convergence by DM+H criterion
max |DM_out - DM_in|         :     0.0000535427
max |H_out - H_in|      (eV) :     0.0005225823
SCF cycle converged after 10 iterations

Using DM_out to compute the final energy and forces
No. of atoms with KB's overlaping orbs in proc 0. Max # of overlaps:      31     201

siesta: E_KS(eV) =            -3222.1851

siesta: Atomic forces (eV/Ang):
----------------------------------------
   Tot   -0.008699    0.014205   -0.002700
----------------------------------------
   Max   12.703633
   Res    2.683093    sqrt( Sum f_i^2 / 3N )
----------------------------------------
   Max   12.703633    constrained

Stress tensor Voigt[x,y,z,yz,xz,xy] (kbar):      -10.90       -1.86       -7.33       -0.81       -3.72        1.65
(Free)E + p*V (eV/cell)    -3202.0660
Target enthalpy (eV/cell)    -3222.1851

                     ====================================
                        Begin CG opt. move =      2
                     ====================================

outcell: Unit cell vectors (Ang):
       16.927466    0.000000    0.000000
        0.000000   20.263367    0.000000
        0.000000    0.000000   14.032973

outcell: Cell vector modules (Ang)   :   16.927466   20.263367   14.032973
outcell: Cell angles (23,13,12) (deg):     90.0000     90.0000     90.0000
outcell: Cell volume (Ang**3)        :   4813.4144
<dSpData1D:S at geom step 2
  <sparsity:sparsity for geom step 2
    nrows_g=275 nrows=275 sparsity=.8760 nnzs=66245, refcount: 7>
  <dData1D:(new from dSpData1D) n=66245, refcount: 1>
refcount: 1>
new_DM -- step:     3
Re-using DM from previous geometries...
Number of DMs in history: 1
 DM extrapolation coefficients: 
1   1.00000
New DM after history re-use:
<dSpData2D:SpM extrapolated using coords
  <sparsity:sparsity for geom step 2
    nrows_g=275 nrows=275 sparsity=.8760 nnzs=66245, refcount: 9>
  <dData2D:(temp array for extrapolation) n=66245 m=1, refcount: 1>
refcount: 1>
No. of atoms with KB's overlaping orbs in proc 0. Max # of overlaps:      31     201

InitMesh: MESH = 180 x 216 x 150 = 5832000
InitMesh: Mesh cutoff (required, used) =   300.000   312.509 Ry
New grid distribution [1]: sub = 2

        iscf     Eharris(eV)        E_KS(eV)     FreeEng(eV)     dDmax    Ef(eV) dHmax(eV)
   scf:    1    -3225.773737    -3224.242165    -3224.242165  0.362388 -3.630772  0.623842
   scf:    2    -3223.589766    -3224.094613    -3224.094613  0.044442 -3.896415  1.613582
   scf:    3    -3224.391867    -3224.325824    -3224.325824  0.032505 -3.635154  0.112007
   scf:    4    -3224.329142    -3224.327606    -3224.327606  0.001866 -3.641539  0.056484
   scf:    5    -3224.328761    -3224.328284    -3224.328284  0.002065 -3.647110  0.020076
   scf:    6    -3224.328338    -3224.328313    -3224.328313  0.000536 -3.647721  0.010235
   scf:    7    -3224.328327    -3224.328321    -3224.328321  0.000434 -3.648144  0.002193
   scf:    8    -3224.328323    -3224.328322    -3224.328322  0.000104 -3.648189  0.001382
   scf:    9    -3224.328323    -3224.328323    -3224.328323  0.000096 -3.648206  0.000555

SCF Convergence by DM+H criterion
max |DM_out - DM_in|         :     0.0000963427
max |H_out - H_in|      (eV) :     0.0005549803
SCF cycle converged after 9 iterations

Using DM_out to compute the final energy and forces
No. of atoms with KB's overlaping orbs in proc 0. Max # of overlaps:      31     201

siesta: E_KS(eV) =            -3224.3283

siesta: Atomic forces (eV/Ang):
----------------------------------------
   Tot    0.000287    0.012678   -0.000947
----------------------------------------
   Max    5.396893
   Res    1.501774    sqrt( Sum f_i^2 / 3N )
----------------------------------------
   Max    5.396893    constrained

Stress tensor Voigt[x,y,z,yz,xz,xy] (kbar):       -6.07       -2.19       -6.11       -0.25       -1.76        1.08
(Free)E + p*V (eV/cell)    -3209.9371
Target enthalpy (eV/cell)    -3224.3283

                     ====================================
                        Begin CG opt. move =      3
                     ====================================

outcell: Unit cell vectors (Ang):
       16.927466    0.000000    0.000000
        0.000000   20.263367    0.000000
        0.000000    0.000000   14.032973

outcell: Cell vector modules (Ang)   :   16.927466   20.263367   14.032973
outcell: Cell angles (23,13,12) (deg):     90.0000     90.0000     90.0000
outcell: Cell volume (Ang**3)        :   4813.4144
<dSpData1D:S at geom step 3
  <sparsity:sparsity for geom step 3
    nrows_g=275 nrows=275 sparsity=.8771 nnzs=66331, refcount: 7>
  <dData1D:(new from dSpData1D) n=66331, refcount: 1>
refcount: 1>
new_DM -- step:     4
Re-using DM from previous geometries...
Number of DMs in history: 1
 DM extrapolation coefficients: 
1   1.00000
New DM after history re-use:
<dSpData2D:SpM extrapolated using coords
  <sparsity:sparsity for geom step 3
    nrows_g=275 nrows=275 sparsity=.8771 nnzs=66331, refcount: 9>
  <dData2D:(temp array for extrapolation) n=66331 m=1, refcount: 1>
refcount: 1>
Note: For starting DM, Qtot, Tr[D*S] =         80.00000000         79.87691149
No. of atoms with KB's overlaping orbs in proc 0. Max # of overlaps:      31     201

InitMesh: MESH = 180 x 216 x 150 = 5832000
InitMesh: Mesh cutoff (required, used) =   300.000   312.509 Ry
New grid distribution [1]: sub = 2

        iscf     Eharris(eV)        E_KS(eV)     FreeEng(eV)     dDmax    Ef(eV) dHmax(eV)
   scf:    1    -3224.206293    -3224.025411    -3224.025411  0.182512 -3.367023  1.850942
   scf:    2    -3222.007048    -3223.542312    -3223.542312  0.103877 -3.917895  3.849007
   scf:    3    -3224.458209    -3224.236389    -3224.236389  0.074369 -3.657375  0.145917
   scf:    4    -3224.239232    -3224.237936    -3224.237936  0.001497 -3.668687  0.080655
   scf:    5    -3224.238857    -3224.238479    -3224.238479  0.001808 -3.678549  0.026377
   scf:    6    -3224.238538    -3224.238512    -3224.238512  0.000741 -3.681319  0.011244
   scf:    7    -3224.238525    -3224.238519    -3224.238519  0.000432 -3.682697  0.003246
   scf:    8    -3224.238523    -3224.238522    -3224.238522  0.000181 -3.683049  0.001688
   scf:    9    -3224.238523    -3224.238522    -3224.238522  0.000108 -3.683163  0.001011
   scf:   10    -3224.238523    -3224.238522    -3224.238522  0.000034 -3.683149  0.000717

SCF Convergence by DM+H criterion
max |DM_out - DM_in|         :     0.0000339420
max |H_out - H_in|      (eV) :     0.0007166342
SCF cycle converged after 10 iterations

Using DM_out to compute the final energy and forces
No. of atoms with KB's overlaping orbs in proc 0. Max # of overlaps:      31     201

siesta: E_KS(eV) =            -3224.2385

siesta: Atomic forces (eV/Ang):
----------------------------------------
   Tot    0.003733    0.005228    0.001639
----------------------------------------
   Max    5.460637
   Res    1.552222    sqrt( Sum f_i^2 / 3N )
----------------------------------------
   Max    5.460637    constrained

Stress tensor Voigt[x,y,z,yz,xz,xy] (kbar):       -3.92       -2.89       -5.56        0.48       -1.18        0.65
(Free)E + p*V (eV/cell)    -3211.8458
Target enthalpy (eV/cell)    -3224.2385

                     ====================================
                        Begin CG opt. move =      4
                     ====================================

outcell: Unit cell vectors (Ang):
       16.927466    0.000000    0.000000
        0.000000   20.263367    0.000000
        0.000000    0.000000   14.032973

outcell: Cell vector modules (Ang)   :   16.927466   20.263367   14.032973
outcell: Cell angles (23,13,12) (deg):     90.0000     90.0000     90.0000
outcell: Cell volume (Ang**3)        :   4813.4144
<dSpData1D:S at geom step 4
  <sparsity:sparsity for geom step 4
    nrows_g=275 nrows=275 sparsity=.8759 nnzs=66243, refcount: 7>
  <dData1D:(new from dSpData1D) n=66243, refcount: 1>
refcount: 1>
new_DM -- step:     5
Re-using DM from previous geometries...
Number of DMs in history: 1
 DM extrapolation coefficients: 
1   1.00000
New DM after history re-use:
<dSpData2D:SpM extrapolated using coords
  <sparsity:sparsity for geom step 4
    nrows_g=275 nrows=275 sparsity=.8759 nnzs=66243, refcount: 9>
  <dData2D:(temp array for extrapolation) n=66243 m=1, refcount: 1>
refcount: 1>
No. of atoms with KB's overlaping orbs in proc 0. Max # of overlaps:      31     201

InitMesh: MESH = 180 x 216 x 150 = 5832000
InitMesh: Mesh cutoff (required, used) =   300.000   312.509 Ry
New grid distribution [1]: sub = 2

        iscf     Eharris(eV)        E_KS(eV)     FreeEng(eV)     dDmax    Ef(eV) dHmax(eV)
   scf:    1    -3224.179118    -3224.432308    -3224.432308  0.085224 -3.806408  0.566889
   scf:    2    -3224.140437    -3224.363876    -3224.363876  0.047256 -4.024303  1.234594
   scf:    3    -3224.497422    -3224.465273    -3224.465273  0.033934 -3.674048  0.062491
   scf:    4    -3224.465808    -3224.465562    -3224.465562  0.000796 -3.667977  0.034185
   scf:    5    -3224.465743    -3224.465669    -3224.465669  0.000816 -3.662794  0.010386
   scf:    6    -3224.465679    -3224.465675    -3224.465675  0.000298 -3.661659  0.004435
   scf:    7    -3224.465677    -3224.465676    -3224.465676  0.000191 -3.661133  0.001242
   scf:    8    -3224.465677    -3224.465676    -3224.465676  0.000090 -3.661001  0.000653

SCF Convergence by DM+H criterion
max |DM_out - DM_in|         :     0.0000903453
max |H_out - H_in|      (eV) :     0.0006526397
SCF cycle converged after 8 iterations

Using DM_out to compute the final energy and forces
No. of atoms with KB's overlaping orbs in proc 0. Max # of overlaps:      31     201

siesta: E_KS(eV) =            -3224.4657

siesta: Atomic forces (eV/Ang):
----------------------------------------
   Tot    0.003264    0.008969    0.000048
----------------------------------------
   Max    5.432287
   Res    1.473473    sqrt( Sum f_i^2 / 3N )
----------------------------------------
   Max    5.432287    constrained

Stress tensor Voigt[x,y,z,yz,xz,xy] (kbar):       -4.71       -2.51       -5.79        0.12       -1.34        0.85
(Free)E + p*V (eV/cell)    -3211.4271
Target enthalpy (eV/cell)    -3224.4657

cgvc: Finished line minimization    1.  Mean atomic displacement =    0.0891

                     ====================================
                        Begin CG opt. move =      5
                     ====================================

outcell: Unit cell vectors (Ang):
       16.927466    0.000000    0.000000
        0.000000   20.263367    0.000000
        0.000000    0.000000   14.032973

outcell: Cell vector modules (Ang)   :   16.927466   20.263367   14.032973
outcell: Cell angles (23,13,12) (deg):     90.0000     90.0000     90.0000
outcell: Cell volume (Ang**3)        :   4813.4144
<dSpData1D:S at geom step 5
  <sparsity:sparsity for geom step 5
    nrows_g=275 nrows=275 sparsity=.8741 nnzs=66107, refcount: 7>
  <dData1D:(new from dSpData1D) n=66107, refcount: 1>
refcount: 1>
new_DM -- step:     6
Re-using DM from previous geometries...
Number of DMs in history: 1
 DM extrapolation coefficients: 
1   1.00000
New DM after history re-use:
<dSpData2D:SpM extrapolated using coords
  <sparsity:sparsity for geom step 5
    nrows_g=275 nrows=275 sparsity=.8741 nnzs=66107, refcount: 9>
  <dData2D:(temp array for extrapolation) n=66107 m=1, refcount: 1>
refcount: 1>
No. of atoms with KB's overlaping orbs in proc 0. Max # of overlaps:      31     200

InitMesh: MESH = 180 x 216 x 150 = 5832000
InitMesh: Mesh cutoff (required, used) =   300.000   312.509 Ry
New grid distribution [1]: sub = 2

        iscf     Eharris(eV)        E_KS(eV)     FreeEng(eV)     dDmax    Ef(eV) dHmax(eV)
   scf:    1    -3227.277149    -3226.522130    -3226.522130  0.283364 -4.116157  2.274674
   scf:    2    -3222.907148    -3225.599940    -3225.599940  0.169848 -4.208092  4.605101
   scf:    3    -3227.178921    -3226.806974    -3226.806974  0.102979 -3.245086  0.369801
   scf:    4    -3226.813184    -3226.810382    -3226.810382  0.004460 -3.269415  0.212618
   scf:    5    -3226.812618    -3226.811725    -3226.811725  0.004263 -3.315374  0.029054
   scf:    6    -3226.811809    -3226.811771    -3226.811771  0.001043 -3.325697  0.008344
   scf:    7    -3226.811793    -3226.811783    -3226.811783  0.000649 -3.329269  0.003401
   scf:    8    -3226.811790    -3226.811787    -3226.811787  0.000473 -3.330626  0.002831
   scf:    9    -3226.811788    -3226.811787    -3226.811787  0.000231 -3.330858  0.001559
   scf:   10    -3226.811787    -3226.811787    -3226.811787  0.000095 -3.330776  0.000704

SCF Convergence by DM+H criterion
max |DM_out - DM_in|         :     0.0000945181
max |H_out - H_in|      (eV) :     0.0007037669
SCF cycle converged after 10 iterations

Using DM_out to compute the final energy and forces
No. of atoms with KB's overlaping orbs in proc 0. Max # of overlaps:      31     200

siesta: E_KS(eV) =            -3226.8118

siesta: Atomic forces (eV/Ang):
----------------------------------------
   Tot   -0.007481   -0.009657   -0.001037
----------------------------------------
   Max    5.331989
   Res    1.068823    sqrt( Sum f_i^2 / 3N )
----------------------------------------
   Max    5.331989    constrained

Stress tensor Voigt[x,y,z,yz,xz,xy] (kbar):       -4.54        0.72       -3.35        0.35       -2.05        0.84
(Free)E + p*V (eV/cell)    -3219.6359
Target enthalpy (eV/cell)    -3226.8118

                     ====================================
                        Begin CG opt. move =      6
                     ====================================

outcell: Unit cell vectors (Ang):
       16.927466    0.000000    0.000000
        0.000000   20.263367    0.000000
        0.000000    0.000000   14.032973

outcell: Cell vector modules (Ang)   :   16.927466   20.263367   14.032973
outcell: Cell angles (23,13,12) (deg):     90.0000     90.0000     90.0000
outcell: Cell volume (Ang**3)        :   4813.4144
<dSpData1D:S at geom step 6
  <sparsity:sparsity for geom step 6
    nrows_g=275 nrows=275 sparsity=.8734 nnzs=66049, refcount: 7>
  <dData1D:(new from dSpData1D) n=66049, refcount: 1>
refcount: 1>
new_DM -- step:     7
Re-using DM from previous geometries...
Number of DMs in history: 1
 DM extrapolation coefficients: 
1   1.00000
New DM after history re-use:
<dSpData2D:SpM extrapolated using coords
  <sparsity:sparsity for geom step 6
    nrows_g=275 nrows=275 sparsity=.8734 nnzs=66049, refcount: 9>
  <dData2D:(temp array for extrapolation) n=66049 m=1, refcount: 1>
refcount: 1>
Note: For starting DM, Qtot, Tr[D*S] =         80.00000000         79.85828615
No. of atoms with KB's overlaping orbs in proc 0. Max # of overlaps:      31     199

InitMesh: MESH = 180 x 216 x 150 = 5832000
InitMesh: Mesh cutoff (required, used) =   300.000   312.509 Ry
New grid distribution [1]: sub = 2

        iscf     Eharris(eV)        E_KS(eV)     FreeEng(eV)     dDmax    Ef(eV) dHmax(eV)
   scf:    1    -3225.627399    -3226.155879    -3226.155879  0.414718 -2.333268  3.458169
   scf:    2    -3221.637050    -3225.028164    -3225.028164  0.212764 -2.335484  6.797674
   scf:    3    -3227.058056    -3226.542168    -3226.542168  0.122778 -3.075026  0.288758
   scf:    4    -3226.548634    -3226.545808    -3226.545808  0.006159 -3.083644  0.187446
   scf:    5    -3226.547818    -3226.546975    -3226.546975  0.004997 -3.115284  0.055523
   scf:    6    -3226.547146    -3226.547074    -3226.547074  0.001748 -3.134023  0.013885
   scf:    7    -3226.547094    -3226.547085    -3226.547085  0.000819 -3.138256  0.004098
   scf:    8    -3226.547092    -3226.547089    -3226.547089  0.000622 -3.139915  0.003340
   scf:    9    -3226.547091    -3226.547090    -3226.547090  0.000383 -3.140460  0.001772
   scf:   10    -3226.547090    -3226.547090    -3226.547090  0.000104 -3.140431  0.000858
   scf:   11    -3226.547090    -3226.547090    -3226.547090  0.000042 -3.140343  0.000311

SCF Convergence by DM+H criterion
max |DM_out - DM_in|         :     0.0000421008
max |H_out - H_in|      (eV) :     0.0003111099
SCF cycle converged after 11 iterations

Using DM_out to compute the final energy and forces
No. of atoms with KB's overlaping orbs in proc 0. Max # of overlaps:      31     199

siesta: E_KS(eV) =            -3226.5471

siesta: Atomic forces (eV/Ang):
----------------------------------------
   Tot   -0.001115    0.006762   -0.004355
----------------------------------------
   Max    9.967650
   Res    2.103759    sqrt( Sum f_i^2 / 3N )
----------------------------------------
   Max    9.967650    constrained

Stress tensor Voigt[x,y,z,yz,xz,xy] (kbar):       -5.62        1.93       -1.34        0.69       -2.65        0.35
(Free)E + p*V (eV/cell)    -3221.5066
Target enthalpy (eV/cell)    -3226.5471

                     ====================================
                        Begin CG opt. move =      7
                     ====================================

outcell: Unit cell vectors (Ang):
       16.927466    0.000000    0.000000
        0.000000   20.263367    0.000000
        0.000000    0.000000   14.032973

outcell: Cell vector modules (Ang)   :   16.927466   20.263367   14.032973
outcell: Cell angles (23,13,12) (deg):     90.0000     90.0000     90.0000
outcell: Cell volume (Ang**3)        :   4813.4144
<dSpData1D:S at geom step 7
  <sparsity:sparsity for geom step 7
    nrows_g=275 nrows=275 sparsity=.8752 nnzs=66187, refcount: 7>
  <dData1D:(new from dSpData1D) n=66187, refcount: 1>
refcount: 1>
new_DM -- step:     8
Re-using DM from previous geometries...
Number of DMs in history: 1
 DM extrapolation coefficients: 
1   1.00000
New DM after history re-use:
<dSpData2D:SpM extrapolated using coords
  <sparsity:sparsity for geom step 7
    nrows_g=275 nrows=275 sparsity=.8752 nnzs=66187, refcount: 9>
  <dData2D:(temp array for extrapolation) n=66187 m=1, refcount: 1>
refcount: 1>
Note: For starting DM, Qtot, Tr[D*S] =         80.00000000         80.09151437
No. of atoms with KB's overlaping orbs in proc 0. Max # of overlaps:      31     199

InitMesh: MESH = 180 x 216 x 150 = 5832000
InitMesh: Mesh cutoff (required, used) =   300.000   312.509 Ry
New grid distribution [1]: sub = 2

        iscf     Eharris(eV)        E_KS(eV)     FreeEng(eV)     dDmax    Ef(eV) dHmax(eV)
   scf:    1    -3226.361946    -3226.853918    -3226.853918  0.273236 -3.258443  2.779311
   scf:    2    -3223.813925    -3226.041296    -3226.041296  0.212053 -3.249308  6.375070
   scf:    3    -3227.316281    -3227.045276    -3227.045276  0.158121 -2.654180  0.300758
   scf:    4    -3227.048394    -3227.047015    -3227.047015  0.004394 -2.604377  0.145775
   scf:    5    -3227.047940    -3227.047550    -3227.047550  0.002971 -2.571908  0.029421
   scf:    6    -3227.047622    -3227.047591    -3227.047591  0.001539 -2.562848  0.009539
   scf:    7    -3227.047605    -3227.047598    -3227.047598  0.000821 -2.559184  0.003386
   scf:    8    -3227.047603    -3227.047601    -3227.047601  0.000462 -2.557658  0.003149
   scf:    9    -3227.047602    -3227.047602    -3227.047602  0.000195 -2.557314  0.001784
   scf:   10    -3227.047602    -3227.047602    -3227.047602  0.000078 -2.557318  0.000767

SCF Convergence by DM+H criterion
max |DM_out - DM_in|         :     0.0000776437
max |H_out - H_in|      (eV) :     0.0007672686
SCF cycle converged after 10 iterations

Using DM_out to compute the final energy and forces
No. of atoms with KB's overlaping orbs in proc 0. Max # of overlaps:      31     199

siesta: E_KS(eV) =            -3227.0476

siesta: Atomic forces (eV/Ang):
----------------------------------------
   Tot   -0.007262    0.001144   -0.004501
----------------------------------------
   Max    4.958200
   Res    1.308066    sqrt( Sum f_i^2 / 3N )
----------------------------------------
   Max    4.958200    constrained

Stress tensor Voigt[x,y,z,yz,xz,xy] (kbar):       -4.79        1.46       -2.51        0.47       -2.30        0.71
(Free)E + p*V (eV/cell)    -3221.1956
Target enthalpy (eV/cell)    -3227.0476

cgvc: Finished line minimization    2.  Mean atomic displacement =    0.0656

                     ====================================
                        Begin CG opt. move =      8
                     ====================================

outcell: Unit cell vectors (Ang):
       16.927466    0.000000    0.000000
        0.000000   20.263367    0.000000
        0.000000    0.000000   14.032973

outcell: Cell vector modules (Ang)   :   16.927466   20.263367   14.032973
outcell: Cell angles (23,13,12) (deg):     90.0000     90.0000     90.0000
outcell: Cell volume (Ang**3)        :   4813.4144
<dSpData1D:S at geom step 8
  <sparsity:sparsity for geom step 8
    nrows_g=275 nrows=275 sparsity=.8723 nnzs=65969, refcount: 7>
  <dData1D:(new from dSpData1D) n=65969, refcount: 1>
refcount: 1>
new_DM -- step:     9
Re-using DM from previous geometries...
Number of DMs in history: 1
 DM extrapolation coefficients: 
1   1.00000
New DM after history re-use:
<dSpData2D:SpM extrapolated using coords
  <sparsity:sparsity for geom step 8
    nrows_g=275 nrows=275 sparsity=.8723 nnzs=65969, refcount: 9>
  <dData2D:(temp array for extrapolation) n=65969 m=1, refcount: 1>
refcount: 1>
No. of atoms with KB's overlaping orbs in proc 0. Max # of overlaps:      31     199

InitMesh: MESH = 180 x 216 x 150 = 5832000
InitMesh: Mesh cutoff (required, used) =   300.000   312.509 Ry
New grid distribution [1]: sub = 2

        iscf     Eharris(eV)        E_KS(eV)     FreeEng(eV)     dDmax    Ef(eV) dHmax(eV)
   scf:    1    -3227.624202    -3227.969835    -3227.969835  0.218138 -2.835169  2.220960
   scf:    2    -3224.255885    -3226.980613    -3226.980613  0.149741 -2.035440  4.562142
   scf:    3    -3228.549067    -3228.204697    -3228.204697  0.093668 -3.314460  0.271455
   scf:    4    -3228.209579    -3228.207332    -3228.207332  0.003860 -3.331183  0.163908
   scf:    5    -3228.209159    -3228.208449    -3228.208449  0.004526 -3.368443  0.026586
   scf:    6    -3228.208496    -3228.208475    -3228.208475  0.001182 -3.377179  0.009505
   scf:    7    -3228.208490    -3228.208483    -3228.208483  0.000799 -3.381505  0.007232
   scf:    8    -3228.208488    -3228.208486    -3228.208486  0.000168 -3.381584  0.004299
   scf:    9    -3228.208488    -3228.208487    -3228.208487  0.000140 -3.381394  0.001252
   scf:   10    -3228.208487    -3228.208487    -3228.208487  0.000047 -3.381248  0.000437

SCF Convergence by DM+H criterion
max |DM_out - DM_in|         :     0.0000470779
max |H_out - H_in|      (eV) :     0.0004366135
SCF cycle converged after 10 iterations

Using DM_out to compute the final energy and forces
No. of atoms with KB's overlaping orbs in proc 0. Max # of overlaps:      31     199

siesta: E_KS(eV) =            -3228.2085

siesta: Atomic forces (eV/Ang):
----------------------------------------
   Tot   -0.010558    0.004647   -0.004177
----------------------------------------
   Max    2.888006
   Res    0.682937    sqrt( Sum f_i^2 / 3N )
----------------------------------------
   Max    2.888006    constrained

Stress tensor Voigt[x,y,z,yz,xz,xy] (kbar):       -3.04        2.07       -1.55        0.44       -2.24        2.39
(Free)E + p*V (eV/cell)    -3225.6906
Target enthalpy (eV/cell)    -3228.2085

                     ====================================
                        Begin CG opt. move =      9
                     ====================================

outcell: Unit cell vectors (Ang):
       16.927466    0.000000    0.000000
        0.000000   20.263367    0.000000
        0.000000    0.000000   14.032973

outcell: Cell vector modules (Ang)   :   16.927466   20.263367   14.032973
outcell: Cell angles (23,13,12) (deg):     90.0000     90.0000     90.0000
outcell: Cell volume (Ang**3)        :   4813.4144
<dSpData1D:S at geom step 9
  <sparsity:sparsity for geom step 9
    nrows_g=275 nrows=275 sparsity=.8712 nnzs=65887, refcount: 7>
  <dData1D:(new from dSpData1D) n=65887, refcount: 1>
refcount: 1>
new_DM -- step:    10
Re-using DM from previous geometries...
Number of DMs in history: 1
 DM extrapolation coefficients: 
1   1.00000
New DM after history re-use:
<dSpData2D:SpM extrapolated using coords
  <sparsity:sparsity for geom step 9
    nrows_g=275 nrows=275 sparsity=.8712 nnzs=65887, refcount: 9>
  <dData2D:(temp array for extrapolation) n=65887 m=1, refcount: 1>
refcount: 1>
No. of atoms with KB's overlaping orbs in proc 0. Max # of overlaps:      31     199

InitMesh: MESH = 180 x 216 x 150 = 5832000
InitMesh: Mesh cutoff (required, used) =   300.000   312.509 Ry
New grid distribution [1]: sub = 2

        iscf     Eharris(eV)        E_KS(eV)     FreeEng(eV)     dDmax    Ef(eV) dHmax(eV)
   scf:    1    -3226.087784    -3227.111956    -3227.111956  0.181573 -3.824586  2.335832
   scf:    2    -3222.859912    -3225.966529    -3225.966529  0.141424 -3.268481  5.240734
   scf:    3    -3227.743203    -3227.362703    -3227.362703  0.097102 -3.275654  0.215419
   scf:    4    -3227.367030    -3227.365042    -3227.365042  0.003639 -3.297918  0.131834
   scf:    5    -3227.366768    -3227.366063    -3227.366063  0.004481 -3.334413  0.024514
   scf:    6    -3227.366123    -3227.366098    -3227.366098  0.001127 -3.343628  0.011208
   scf:    7    -3227.366110    -3227.366105    -3227.366105  0.000587 -3.347344  0.005663
   scf:    8    -3227.366109    -3227.366107    -3227.366107  0.000236 -3.347934  0.003967
   scf:    9    -3227.366109    -3227.366108    -3227.366108  0.000142 -3.347846  0.001948
   scf:   10    -3227.366108    -3227.366108    -3227.366108  0.000073 -3.347637  0.000655

SCF Convergence by DM+H criterion
max |DM_out - DM_in|         :     0.0000731174
max |H_out - H_in|      (eV) :     0.0006550839
SCF cycle converged after 10 iterations

Using DM_out to compute the final energy and forces
No. of atoms with KB's overlaping orbs in proc 0. Max # of overlaps:      31     199

siesta: E_KS(eV) =            -3227.3661

siesta: Atomic forces (eV/Ang):
----------------------------------------
   Tot   -0.005386   -0.000663   -0.000909
----------------------------------------
   Max   10.871587
   Res    1.950942    sqrt( Sum f_i^2 / 3N )
----------------------------------------
   Max   10.871587    constrained

Stress tensor Voigt[x,y,z,yz,xz,xy] (kbar):       -2.44        0.85       -0.72        0.49       -2.29        4.39
(Free)E + p*V (eV/cell)    -3225.0511
Target enthalpy (eV/cell)    -3227.3661

                     ====================================
                        Begin CG opt. move =     10
                     ====================================

outcell: Unit cell vectors (Ang):
       16.927466    0.000000    0.000000
        0.000000   20.263367    0.000000
        0.000000    0.000000   14.032973

outcell: Cell vector modules (Ang)   :   16.927466   20.263367   14.032973
outcell: Cell angles (23,13,12) (deg):     90.0000     90.0000     90.0000
outcell: Cell volume (Ang**3)        :   4813.4144
<dSpData1D:S at geom step 10
  <sparsity:sparsity for geom step 10
    nrows_g=275 nrows=275 sparsity=.8723 nnzs=65969, refcount: 7>
  <dData1D:(new from dSpData1D) n=65969, refcount: 1>
refcount: 1>
new_DM -- step:    11
Re-using DM from previous geometries...
Number of DMs in history: 1
 DM extrapolation coefficients: 
1   1.00000
New DM after history re-use:
<dSpData2D:SpM extrapolated using coords
  <sparsity:sparsity for geom step 10
    nrows_g=275 nrows=275 sparsity=.8723 nnzs=65969, refcount: 9>
  <dData2D:(temp array for extrapolation) n=65969 m=1, refcount: 1>
refcount: 1>
No. of atoms with KB's overlaping orbs in proc 0. Max # of overlaps:      31     199

InitMesh: MESH = 180 x 216 x 150 = 5832000
InitMesh: Mesh cutoff (required, used) =   300.000   312.509 Ry
New grid distribution [1]: sub = 2

        iscf     Eharris(eV)        E_KS(eV)     FreeEng(eV)     dDmax    Ef(eV) dHmax(eV)
   scf:    1    -3227.945263    -3227.994726    -3227.994726  0.152884 -3.046559  2.635954
   scf:    2    -3223.794659    -3226.850245    -3226.850245  0.196157 -2.677585  5.989376
   scf:    3    -3228.575923    -3228.227670    -3228.227670  0.147936 -3.603635  0.310370
   scf:    4    -3228.232247    -3228.230234    -3228.230234  0.004195 -3.549162  0.149136
   scf:    5    -3228.231630    -3228.231032    -3228.231032  0.003155 -3.511518  0.031658
   scf:    6    -3228.231161    -3228.231107    -3228.231107  0.001948 -3.499305  0.009677
   scf:    7    -3228.231120    -3228.231114    -3228.231114  0.000865 -3.495575  0.005855
   scf:    8    -3228.231119    -3228.231117    -3228.231117  0.000349 -3.494705  0.004116
   scf:    9    -3228.231119    -3228.231118    -3228.231118  0.000201 -3.494516  0.001982
   scf:   10    -3228.231118    -3228.231118    -3228.231118  0.000092 -3.494574  0.000718

SCF Convergence by DM+H criterion
max |DM_out - DM_in|         :     0.0000918735
max |H_out - H_in|      (eV) :     0.0007181153
SCF cycle converged after 10 iterations

Using DM_out to compute the final energy and forces
No. of atoms with KB's overlaping orbs in proc 0. Max # of overlaps:      31     199

siesta: E_KS(eV) =            -3228.2311

siesta: Atomic forces (eV/Ang):
----------------------------------------
   Tot   -0.011855    0.000139   -0.003897
----------------------------------------
   Max    3.026918
   Res    0.716150    sqrt( Sum f_i^2 / 3N )
----------------------------------------
   Max    3.026918    constrained

Stress tensor Voigt[x,y,z,yz,xz,xy] (kbar):       -2.91        2.04       -1.44        0.45       -2.24        2.60
(Free)E + p*V (eV/cell)    -3225.9217
Target enthalpy (eV/cell)    -3228.2311

cgvc: Finished line minimization    3.  Mean atomic displacement =    0.0735

                     ====================================
                        Begin CG opt. move =     11
                     ====================================

outcell: Unit cell vectors (Ang):
       16.927466    0.000000    0.000000
        0.000000   20.263367    0.000000
        0.000000    0.000000   14.032973

outcell: Cell vector modules (Ang)   :   16.927466   20.263367   14.032973
outcell: Cell angles (23,13,12) (deg):     90.0000     90.0000     90.0000
outcell: Cell volume (Ang**3)        :   4813.4144
<dSpData1D:S at geom step 11
  <sparsity:sparsity for geom step 11
    nrows_g=275 nrows=275 sparsity=.8735 nnzs=66059, refcount: 7>
  <dData1D:(new from dSpData1D) n=66059, refcount: 1>
refcount: 1>
new_DM -- step:    12
Re-using DM from previous geometries...
Number of DMs in history: 1
 DM extrapolation coefficients: 
1   1.00000
New DM after history re-use:
<dSpData2D:SpM extrapolated using coords
  <sparsity:sparsity for geom step 11
    nrows_g=275 nrows=275 sparsity=.8735 nnzs=66059, refcount: 9>
  <dData2D:(temp array for extrapolation) n=66059 m=1, refcount: 1>
refcount: 1>
No. of atoms with KB's overlaping orbs in proc 0. Max # of overlaps:      31     199

InitMesh: MESH = 180 x 216 x 150 = 5832000
InitMesh: Mesh cutoff (required, used) =   300.000   312.509 Ry
New grid distribution [1]: sub = 2

        iscf     Eharris(eV)        E_KS(eV)     FreeEng(eV)     dDmax    Ef(eV) dHmax(eV)
   scf:    1    -3228.280314    -3228.532239    -3228.532239  0.190288 -3.929653  2.104285
   scf:    2    -3223.028204    -3227.017148    -3227.017148  0.120251 -2.363167  5.293440
   scf:    3    -3229.279969    -3228.810036    -3228.810036  0.084252 -4.092421  0.163265
   scf:    4    -3228.812935    -3228.811632    -3228.811632  0.001996 -4.089434  0.087596
   scf:    5    -3228.812648    -3228.812210    -3228.812210  0.002404 -4.089410  0.019483
   scf:    6    -3228.812321    -3228.812270    -3228.812270  0.001023 -4.090950  0.006844
   scf:    7    -3228.812294    -3228.812283    -3228.812283  0.000686 -4.091972  0.002972
   scf:    8    -3228.812286    -3228.812285    -3228.812285  0.000262 -4.092204  0.001466
   scf:    9    -3228.812286    -3228.812285    -3228.812285  0.000211 -4.092288  0.000568
   scf:   10    -3228.812285    -3228.812285    -3228.812285  0.000097 -4.092279  0.000289

SCF Convergence by DM+H criterion
max |DM_out - DM_in|         :     0.0000969922
max |H_out - H_in|      (eV) :     0.0002889544
SCF cycle converged after 10 iterations

Using DM_out to compute the final energy and forces
No. of atoms with KB's overlaping orbs in proc 0. Max # of overlaps:      31     199

siesta: E_KS(eV) =            -3228.8123

siesta: Atomic forces (eV/Ang):
----------------------------------------
   Tot   -0.002697    0.005069   -0.001536
----------------------------------------
   Max    2.784382
   Res    0.626788    sqrt( Sum f_i^2 / 3N )
----------------------------------------
   Max    2.784382    constrained

Stress tensor Voigt[x,y,z,yz,xz,xy] (kbar):       -1.52        1.30       -1.77        0.27       -1.59        2.02
(Free)E + p*V (eV/cell)    -3226.8202
Target enthalpy (eV/cell)    -3228.8123

                     ====================================
                        Begin CG opt. move =     12
                     ====================================

outcell: Unit cell vectors (Ang):
       16.927466    0.000000    0.000000
        0.000000   20.263367    0.000000
        0.000000    0.000000   14.032973

outcell: Cell vector modules (Ang)   :   16.927466   20.263367   14.032973
outcell: Cell angles (23,13,12) (deg):     90.0000     90.0000     90.0000
outcell: Cell volume (Ang**3)        :   4813.4144
<dSpData1D:S at geom step 12
  <sparsity:sparsity for geom step 12
    nrows_g=275 nrows=275 sparsity=.8745 nnzs=66135, refcount: 7>
  <dData1D:(new from dSpData1D) n=66135, refcount: 1>
refcount: 1>
new_DM -- step:    13
Re-using DM from previous geometries...
Number of DMs in history: 1
 DM extrapolation coefficients: 
1   1.00000
New DM after history re-use:
<dSpData2D:SpM extrapolated using coords
  <sparsity:sparsity for geom step 12
    nrows_g=275 nrows=275 sparsity=.8745 nnzs=66135, refcount: 9>
  <dData2D:(temp array for extrapolation) n=66135 m=1, refcount: 1>
refcount: 1>
No. of atoms with KB's overlaping orbs in proc 0. Max # of overlaps:      31     199

InitMesh: MESH = 180 x 216 x 150 = 5832000
InitMesh: Mesh cutoff (required, used) =   300.000   312.509 Ry
New grid distribution [1]: sub = 2

        iscf     Eharris(eV)        E_KS(eV)     FreeEng(eV)     dDmax    Ef(eV) dHmax(eV)
   scf:    1    -3228.790266    -3228.818597    -3228.818597  0.021756 -4.048563  0.242235
   scf:    2    -3228.751037    -3228.800030    -3228.800030  0.013964 -3.973030  0.602486
   scf:    3    -3228.827872    -3228.822002    -3228.822002  0.010057 -4.029864  0.016823
   scf:    4    -3228.822032    -3228.822019    -3228.822019  0.000238 -4.029997  0.008955
   scf:    5    -3228.822030    -3228.822025    -3228.822025  0.000298 -4.029840  0.001660
   scf:    6    -3228.822026    -3228.822026    -3228.822026  0.000091 -4.029698  0.000713

SCF Convergence by DM+H criterion
max |DM_out - DM_in|         :     0.0000908418
max |H_out - H_in|      (eV) :     0.0007126566
SCF cycle converged after 6 iterations

Using DM_out to compute the final energy and forces
No. of atoms with KB's overlaping orbs in proc 0. Max # of overlaps:      31     199

siesta: E_KS(eV) =            -3228.8220

siesta: Atomic forces (eV/Ang):
----------------------------------------
   Tot   -0.004772    0.004722   -0.001402
----------------------------------------
   Max    2.251990
   Res    0.560843    sqrt( Sum f_i^2 / 3N )
----------------------------------------
   Max    2.251990    constrained

Stress tensor Voigt[x,y,z,yz,xz,xy] (kbar):       -1.62        1.42       -1.73        0.29       -1.66        2.08
(Free)E + p*V (eV/cell)    -3226.8851
Target enthalpy (eV/cell)    -3228.8220

cgvc: Finished line minimization    4.  Mean atomic displacement =    0.0656

                     ====================================
                        Begin CG opt. move =     13
                     ====================================

outcell: Unit cell vectors (Ang):
       16.927466    0.000000    0.000000
        0.000000   20.263367    0.000000
        0.000000    0.000000   14.032973

outcell: Cell vector modules (Ang)   :   16.927466   20.263367   14.032973
outcell: Cell angles (23,13,12) (deg):     90.0000     90.0000     90.0000
outcell: Cell volume (Ang**3)        :   4813.4144
<dSpData1D:S at geom step 13
  <sparsity:sparsity for geom step 13
    nrows_g=275 nrows=275 sparsity=.8700 nnzs=65791, refcount: 7>
  <dData1D:(new from dSpData1D) n=65791, refcount: 1>
refcount: 1>
new_DM -- step:    14
Re-using DM from previous geometries...
Number of DMs in history: 1
 DM extrapolation coefficients: 
1   1.00000
New DM after history re-use:
<dSpData2D:SpM extrapolated using coords
  <sparsity:sparsity for geom step 13
    nrows_g=275 nrows=275 sparsity=.8700 nnzs=65791, refcount: 9>
  <dData2D:(temp array for extrapolation) n=65791 m=1, refcount: 1>
refcount: 1>
No. of atoms with KB's overlaping orbs in proc 0. Max # of overlaps:      31     195

InitMesh: MESH = 180 x 216 x 150 = 5832000
InitMesh: Mesh cutoff (required, used) =   300.000   312.509 Ry
New grid distribution [1]: sub = 2

        iscf     Eharris(eV)        E_KS(eV)     FreeEng(eV)     dDmax    Ef(eV) dHmax(eV)
   scf:    1    -3229.353877    -3229.109959    -3229.109959  0.105691 -4.138883  0.944548
   scf:    2    -3228.314094    -3228.909215    -3228.909215  0.048739 -4.068467  1.677940
   scf:    3    -3229.254689    -3229.178222    -3229.178222  0.029952 -4.066685  0.173937
   scf:    4    -3229.179852    -3229.179101    -3229.179101  0.001818 -4.048623  0.093147
   scf:    5    -3229.179688    -3229.179446    -3229.179446  0.002008 -4.028611  0.012687
   scf:    6    -3229.179479    -3229.179464    -3229.179464  0.000509 -4.024017  0.005608
   scf:    7    -3229.179473    -3229.179469    -3229.179469  0.000299 -4.021826  0.004421
   scf:    8    -3229.179472    -3229.179470    -3229.179470  0.000112 -4.021594  0.002897
   scf:    9    -3229.179471    -3229.179471    -3229.179471  0.000090 -4.021618  0.001156
   scf:   10    -3229.179471    -3229.179471    -3229.179471  0.000025 -4.021714  0.000516

SCF Convergence by DM+H criterion
max |DM_out - DM_in|         :     0.0000245166
max |H_out - H_in|      (eV) :     0.0005157163
SCF cycle converged after 10 iterations

Using DM_out to compute the final energy and forces
No. of atoms with KB's overlaping orbs in proc 0. Max # of overlaps:      31     195

siesta: E_KS(eV) =            -3229.1795

siesta: Atomic forces (eV/Ang):
----------------------------------------
   Tot    0.007008    0.002850   -0.003348
----------------------------------------
   Max    1.845956
   Res    0.483014    sqrt( Sum f_i^2 / 3N )
----------------------------------------
   Max    1.845956    constrained

Stress tensor Voigt[x,y,z,yz,xz,xy] (kbar):       -0.55        1.33       -1.51        0.59       -1.09        1.51
(Free)E + p*V (eV/cell)    -3228.4503
Target enthalpy (eV/cell)    -3229.1795

                     ====================================
                        Begin CG opt. move =     14
                     ====================================

outcell: Unit cell vectors (Ang):
       16.927466    0.000000    0.000000
        0.000000   20.263367    0.000000
        0.000000    0.000000   14.032973

outcell: Cell vector modules (Ang)   :   16.927466   20.263367   14.032973
outcell: Cell angles (23,13,12) (deg):     90.0000     90.0000     90.0000
outcell: Cell volume (Ang**3)        :   4813.4144
<dSpData1D:S at geom step 14
  <sparsity:sparsity for geom step 14
    nrows_g=275 nrows=275 sparsity=.8725 nnzs=65983, refcount: 7>
  <dData1D:(new from dSpData1D) n=65983, refcount: 1>
refcount: 1>
new_DM -- step:    15
Re-using DM from previous geometries...
Number of DMs in history: 1
 DM extrapolation coefficients: 
1   1.00000
New DM after history re-use:
<dSpData2D:SpM extrapolated using coords
  <sparsity:sparsity for geom step 14
    nrows_g=275 nrows=275 sparsity=.8725 nnzs=65983, refcount: 9>
  <dData2D:(temp array for extrapolation) n=65983 m=1, refcount: 1>
refcount: 1>
No. of atoms with KB's overlaping orbs in proc 0. Max # of overlaps:      31     195

InitMesh: MESH = 180 x 216 x 150 = 5832000
InitMesh: Mesh cutoff (required, used) =   300.000   312.509 Ry
New grid distribution [1]: sub = 2

        iscf     Eharris(eV)        E_KS(eV)     FreeEng(eV)     dDmax    Ef(eV) dHmax(eV)
   scf:    1    -3229.161236    -3229.181203    -3229.181203  0.008384 -4.013240  0.062576
   scf:    2    -3229.177580    -3229.180293    -3229.180293  0.003315 -4.017518  0.104559
   scf:    3    -3229.181872    -3229.181520    -3229.181520  0.002095 -4.017463  0.012191
   scf:    4    -3229.181527    -3229.181524    -3229.181524  0.000123 -4.018644  0.006630
   scf:    5    -3229.181526    -3229.181525    -3229.181525  0.000143 -4.020015  0.000982
   scf:    6    -3229.181525    -3229.181525    -3229.181525  0.000036 -4.020343  0.000417

SCF Convergence by DM+H criterion
max |DM_out - DM_in|         :     0.0000357380
max |H_out - H_in|      (eV) :     0.0004167707
SCF cycle converged after 6 iterations

Using DM_out to compute the final energy and forces
[...]
Number of DMs in history: 1
 DM extrapolation coefficients: 
1   1.00000
New DM after history re-use:
<dSpData2D:SpM extrapolated using coords
  <sparsity:sparsity for geom step 397
    nrows_g=275 nrows=275 sparsity=.8302 nnzs=62783, refcount: 9>
  <dData2D:(temp array for extrapolation) n=62783 m=1, refcount: 1>
refcount: 1>
No. of atoms with KB's overlaping orbs in proc 0. Max # of overlaps:      31     183

InitMesh: MESH = 180 x 216 x 150 = 5832000
InitMesh: Mesh cutoff (required, used) =   300.000   312.509 Ry
New grid distribution [1]: sub = 2

        iscf     Eharris(eV)        E_KS(eV)     FreeEng(eV)     dDmax    Ef(eV) dHmax(eV)
   scf:    1    -3230.167312    -3230.163310    -3230.163310  0.004062 -4.150850  0.035624
   scf:    2    -3230.162337    -3230.163054    -3230.163054  0.001945 -4.153949  0.087314
   scf:    3    -3230.163466    -3230.163377    -3230.163377  0.001385 -4.151270  0.002862
   scf:    4    -3230.163379    -3230.163378    -3230.163378  0.000054 -4.151181  0.001537
   scf:    5    -3230.163379    -3230.163378    -3230.163378  0.000070 -4.151104  0.000252

SCF Convergence by DM+H criterion
max |DM_out - DM_in|         :     0.0000703444
max |H_out - H_in|      (eV) :     0.0002518931
SCF cycle converged after 5 iterations

Using DM_out to compute the final energy and forces
No. of atoms with KB's overlaping orbs in proc 0. Max # of overlaps:      31     183

siesta: E_KS(eV) =            -3230.1634

siesta: Atomic forces (eV/Ang):
----------------------------------------
   Tot   -0.000615   -0.006786   -0.009112
----------------------------------------
   Max    0.033739
   Res    0.011584    sqrt( Sum f_i^2 / 3N )
----------------------------------------
   Max    0.033739    constrained

Stress tensor Voigt[x,y,z,yz,xz,xy] (kbar):       -0.00       -0.03       -0.01        0.00        0.01        0.01
(Free)E + p*V (eV/cell)    -3230.1330
Target enthalpy (eV/cell)    -3230.1634

                     ====================================
                        Begin CG opt. move =    398
                     ====================================

outcell: Unit cell vectors (Ang):
       16.927466    0.000000    0.000000
        0.000000   20.263367    0.000000
        0.000000    0.000000   14.032973

outcell: Cell vector modules (Ang)   :   16.927466   20.263367   14.032973
outcell: Cell angles (23,13,12) (deg):     90.0000     90.0000     90.0000
outcell: Cell volume (Ang**3)        :   4813.4144
<dSpData1D:S at geom step 398
  <sparsity:sparsity for geom step 398
    nrows_g=275 nrows=275 sparsity=.8302 nnzs=62783, refcount: 7>
  <dData1D:(new from dSpData1D) n=62783, refcount: 1>
refcount: 1>
new_DM -- step:   399
Re-using DM from previous geometries...
Number of DMs in history: 1
 DM extrapolation coefficients: 
1   1.00000
New DM after history re-use:
<dSpData2D:SpM extrapolated using coords
  <sparsity:sparsity for geom step 398
    nrows_g=275 nrows=275 sparsity=.8302 nnzs=62783, refcount: 9>
  <dData2D:(temp array for extrapolation) n=62783 m=1, refcount: 1>
refcount: 1>
No. of atoms with KB's overlaping orbs in proc 0. Max # of overlaps:      31     183

InitMesh: MESH = 180 x 216 x 150 = 5832000
InitMesh: Mesh cutoff (required, used) =   300.000   312.509 Ry
New grid distribution [1]: sub = 2

        iscf     Eharris(eV)        E_KS(eV)     FreeEng(eV)     dDmax    Ef(eV) dHmax(eV)
   scf:    1    -3230.162690    -3230.163383    -3230.163383  0.000669 -4.150481  0.005659
   scf:    2    -3230.163358    -3230.163376    -3230.163376  0.000311 -4.149884  0.013919
   scf:    3    -3230.163387    -3230.163384    -3230.163384  0.000222 -4.150380  0.000484
   scf:    4    -3230.163385    -3230.163384    -3230.163384  0.000009 -4.150393  0.000260

SCF Convergence by DM+H criterion
max |DM_out - DM_in|         :     0.0000093930
max |H_out - H_in|      (eV) :     0.0002601070
SCF cycle converged after 4 iterations

Using DM_out to compute the final energy and forces
No. of atoms with KB's overlaping orbs in proc 0. Max # of overlaps:      31     183

siesta: E_KS(eV) =            -3230.1634

siesta: Atomic forces (eV/Ang):
----------------------------------------
   Tot   -0.000587   -0.006734   -0.009122
----------------------------------------
   Max    0.029367
   Res    0.009568    sqrt( Sum f_i^2 / 3N )
----------------------------------------
   Max    0.029367    constrained

Stress tensor Voigt[x,y,z,yz,xz,xy] (kbar):       -0.00       -0.02       -0.00        0.00        0.01        0.01
(Free)E + p*V (eV/cell)    -3230.1350
Target enthalpy (eV/cell)    -3230.1634

cgvc: Finished line minimization  160.  Mean atomic displacement =    0.0053

                     ====================================
                        Begin CG opt. move =    399
                     ====================================

outcell: Unit cell vectors (Ang):
       16.927466    0.000000    0.000000
        0.000000   20.263367    0.000000
        0.000000    0.000000   14.032973

outcell: Cell vector modules (Ang)   :   16.927466   20.263367   14.032973
outcell: Cell angles (23,13,12) (deg):     90.0000     90.0000     90.0000
outcell: Cell volume (Ang**3)        :   4813.4144
<dSpData1D:S at geom step 399
  <sparsity:sparsity for geom step 399
    nrows_g=275 nrows=275 sparsity=.8302 nnzs=62783, refcount: 7>
  <dData1D:(new from dSpData1D) n=62783, refcount: 1>
refcount: 1>
new_DM -- step:   400
Re-using DM from previous geometries...
Number of DMs in history: 1
 DM extrapolation coefficients: 
1   1.00000
New DM after history re-use:
<dSpData2D:SpM extrapolated using coords
  <sparsity:sparsity for geom step 399
    nrows_g=275 nrows=275 sparsity=.8302 nnzs=62783, refcount: 9>
  <dData2D:(temp array for extrapolation) n=62783 m=1, refcount: 1>
refcount: 1>
No. of atoms with KB's overlaping orbs in proc 0. Max # of overlaps:      31     183

InitMesh: MESH = 180 x 216 x 150 = 5832000
InitMesh: Mesh cutoff (required, used) =   300.000   312.509 Ry
New grid distribution [1]: sub = 2

        iscf     Eharris(eV)        E_KS(eV)     FreeEng(eV)     dDmax    Ef(eV) dHmax(eV)
   scf:    1    -3230.169311    -3230.163453    -3230.163453  0.003530 -4.161344  0.036868
   scf:    2    -3230.162560    -3230.163212    -3230.163212  0.001603 -4.168959  0.091013
   scf:    3    -3230.163581    -3230.163507    -3230.163507  0.001141 -4.163012  0.003110
   scf:    4    -3230.163508    -3230.163508    -3230.163508  0.000055 -4.162958  0.001696
   scf:    5    -3230.163508    -3230.163508    -3230.163508  0.000065 -4.162948  0.000342

SCF Convergence by DM+H criterion
max |DM_out - DM_in|         :     0.0000650851
max |H_out - H_in|      (eV) :     0.0003424453
SCF cycle converged after 5 iterations

Using DM_out to compute the final energy and forces
No. of atoms with KB's overlaping orbs in proc 0. Max # of overlaps:      31     183

siesta: E_KS(eV) =            -3230.1635

siesta: Atomic forces (eV/Ang):
----------------------------------------
   Tot   -0.000447   -0.006706   -0.008766
----------------------------------------
   Max    0.034244
   Res    0.011805    sqrt( Sum f_i^2 / 3N )
----------------------------------------
   Max    0.034244    constrained

Stress tensor Voigt[x,y,z,yz,xz,xy] (kbar):        0.01       -0.01       -0.01       -0.00        0.01        0.01
(Free)E + p*V (eV/cell)    -3230.1497
Target enthalpy (eV/cell)    -3230.1635

                     ====================================
                        Begin CG opt. move =    400
                     ====================================

outcell: Unit cell vectors (Ang):
       16.927466    0.000000    0.000000
        0.000000   20.263367    0.000000
        0.000000    0.000000   14.032973

outcell: Cell vector modules (Ang)   :   16.927466   20.263367   14.032973
outcell: Cell angles (23,13,12) (deg):     90.0000     90.0000     90.0000
outcell: Cell volume (Ang**3)        :   4813.4144
<dSpData1D:S at geom step 400
  <sparsity:sparsity for geom step 400
    nrows_g=275 nrows=275 sparsity=.8302 nnzs=62783, refcount: 7>
  <dData1D:(new from dSpData1D) n=62783, refcount: 1>
refcount: 1>
new_DM -- step:   401
Re-using DM from previous geometries...
Number of DMs in history: 1
 DM extrapolation coefficients: 
1   1.00000
New DM after history re-use:
<dSpData2D:SpM extrapolated using coords
  <sparsity:sparsity for geom step 400
    nrows_g=275 nrows=275 sparsity=.8302 nnzs=62783, refcount: 9>
  <dData2D:(temp array for extrapolation) n=62783 m=1, refcount: 1>
refcount: 1>
No. of atoms with KB's overlaping orbs in proc 0. Max # of overlaps:      31     183

InitMesh: MESH = 180 x 216 x 150 = 5832000
InitMesh: Mesh cutoff (required, used) =   300.000   312.509 Ry
New grid distribution [1]: sub = 2

        iscf     Eharris(eV)        E_KS(eV)     FreeEng(eV)     dDmax    Ef(eV) dHmax(eV)
   scf:    1    -3230.162778    -3230.163510    -3230.163510  0.000436 -4.161654  0.004286
   scf:    2    -3230.163497    -3230.163507    -3230.163507  0.000185 -4.160630  0.010669
   scf:    3    -3230.163512    -3230.163511    -3230.163511  0.000132 -4.161413  0.000436
   scf:    4    -3230.163511    -3230.163511    -3230.163511  0.000008 -4.161416  0.000240

SCF Convergence by DM+H criterion
max |DM_out - DM_in|         :     0.0000078503
max |H_out - H_in|      (eV) :     0.0002397405
SCF cycle converged after 4 iterations

Using DM_out to compute the final energy and forces
No. of atoms with KB's overlaping orbs in proc 0. Max # of overlaps:      31     183

siesta: E_KS(eV) =            -3230.1635

siesta: Atomic forces (eV/Ang):
----------------------------------------
   Tot   -0.000515   -0.006751   -0.008824
----------------------------------------
   Max    0.026681
   Res    0.010334    sqrt( Sum f_i^2 / 3N )
----------------------------------------
   Max    0.026681    constrained

Stress tensor Voigt[x,y,z,yz,xz,xy] (kbar):        0.01       -0.02       -0.01       -0.00        0.01        0.01
(Free)E + p*V (eV/cell)    -3230.1481
Target enthalpy (eV/cell)    -3230.1635

cgvc: Finished line minimization  161.  Mean atomic displacement =    0.0046

outcoor: Final (unrelaxed) atomic coordinates (Ang):        
   -0.95371654    1.48426776   -0.04677774   1       1  C
    0.21028209    2.20854796    0.26459374   1       2  C
    1.25726462    1.33269018    0.55741081   2       3  N
    1.48850009   -1.21257238    0.62626596   1       4  C
    0.75248731   -2.40683443    0.43296104   1       5  C
   -0.63495972   -2.36630423    0.06317842   1       6  C
   -1.31430666   -1.13915756   -0.12472390   1       7  C
   -0.58903550    0.07803766    0.06194500   1       8  C
    0.80579761    0.01776852    0.43948748   1       9  C
   -2.31581165    2.05681850   -0.39512191   1      10  C
    0.37527684    3.30819959    0.31189144   3      11  H
    2.21621439    1.61539679    0.79771519   3      12  H
   -2.39311849   -1.14912815   -0.41326427   3      13  H
   -1.36381142   -3.53481228   -0.12717308   4      14  O
    1.25433466   -3.39752813    0.56875734   3      15  H
    2.56793894   -1.24886789    0.91371740   3      16  H
   -0.77081059   -4.29713716    0.05164020   3      17  H
   -4.57673602    3.20215667   -2.15976201   1      18  C
   -2.23555324    3.18058293   -1.45662363   1      19  C
   -3.24102352    5.18856033   -2.34703578   1      20  C
   -3.47497139    3.96914864   -1.56685041   2      21  N
   -4.77958511    2.27563066   -1.55951858   3      22  H
   -5.51037160    3.82835853   -2.15405464   3      23  H
   -4.37235841    2.89090758   -3.23631070   3      24  H
   -2.40994113    5.78512634   -1.88037821   3      25  H
   -2.96166380    4.98315485   -3.43150659   3      26  H
   -4.17035819    5.82101408   -2.34507853   3      27  H
   -1.42216625    3.89786612   -1.15672942   3      28  H
   -1.91928022    2.73537129   -2.45647890   3      29  H
   -2.97463353    1.22075663   -0.75704722   3      30  H
   -2.81852370    2.48047404    0.52135082   3      31  H

coxmol: Writing XMOL coordinates into file optimization.xyz                                                                                                                                                                                                                    

siesta: Program's energy decomposition (eV):
siesta: Ebs     =     -1011.122469
siesta: Eions   =      5439.494713
siesta: Ena     =      1440.532450
siesta: Ekin    =      2220.804949
siesta: Enl     =      -222.066837
siesta: Eso     =         0.000000
siesta: Edftu   =         0.000000
siesta: DEna    =      -121.108354
siesta: DUscf   =        12.066355
siesta: DUext   =         0.000000
siesta: Ex      =     -1030.283827
siesta: Ec      =       -90.613532
siesta: Exc     =     -1120.897359
siesta: EbV     =         0.000000
siesta: eta*DQ  =         0.000000
siesta: Emadel  =         0.000000
siesta: Emeta   =         0.000000
siesta: Emolmec =         0.000000
siesta: Ekinion =         0.000000
siesta: Eharris =     -3230.163511
siesta: Etot    =     -3230.163511
siesta: FreeEng =     -3230.163511

siesta: Final energy (eV):
siesta:  Band Struct. =   -1011.122469
siesta:       Kinetic =    2220.804949
siesta:       Hartree =    8481.537857
siesta:         Edftu =       0.000000
siesta:       Eso     =       0.000000
siesta:    Ext. field =       0.000000
siesta:         Exch. =   -1030.283827
siesta:         Corr. =     -90.613532
siesta:     Bulk bias =       0.000000
siesta:   Exch.-corr. =   -1120.897359
siesta:  Ion-electron =  -18935.710593
siesta:       Ion-ion =    6124.101636
siesta:       Ekinion =       0.000000
siesta: D3 dispersion =       0.000000
siesta:         Total =   -3230.163511
siesta:         Fermi =      -4.161416

siesta: Atomic forces (eV/Ang):
siesta:      1    0.019281   -0.017533    0.000615
siesta:      2    0.009682   -0.009840    0.000993
siesta:      3    0.015355    0.015178    0.003184
siesta:      4   -0.021592   -0.003294   -0.009590
siesta:      5   -0.001608    0.015210    0.003508
siesta:      6   -0.009838    0.024043   -0.011589
siesta:      7    0.026681   -0.011703    0.004092
siesta:      8   -0.021835   -0.004691   -0.015599
siesta:      9   -0.002506   -0.015536    0.002939
siesta:     10    0.006863    0.016825   -0.007178
siesta:     11    0.007402    0.011560    0.000939
siesta:     12   -0.023848   -0.001024   -0.005725
siesta:     13   -0.011222    0.003490    0.002999
siesta:     14   -0.006066   -0.001254   -0.003341
siesta:     15    0.010400   -0.016124    0.006389
siesta:     16    0.005395   -0.007824    0.005368
siesta:     17    0.002168    0.000026   -0.004428
siesta:     18    0.005404   -0.001802   -0.000219
siesta:     19   -0.015198   -0.004304    0.007336
siesta:     20   -0.010104    0.003168    0.015210
siesta:     21    0.006825   -0.003724    0.008318
siesta:     22   -0.003249    0.009567    0.009065
siesta:     23   -0.009001   -0.008024   -0.004369
siesta:     24    0.013191   -0.018862    0.007687
siesta:     25   -0.011568    0.006793   -0.000130
siesta:     26    0.009027    0.000095   -0.012110
siesta:     27   -0.007429    0.011813   -0.013859
siesta:     28    0.001761   -0.002439   -0.004946
siesta:     29    0.015556    0.006758    0.000085
siesta:     30    0.004825   -0.004984   -0.007645
siesta:     31   -0.005266    0.001685    0.013179
siesta: ----------------------------------------
siesta:    Tot   -0.000515   -0.006751   -0.008824

siesta: Stress tensor (static) (eV/Ang**3):
siesta:     0.000003    0.000005    0.000008
siesta:     0.000005   -0.000010   -0.000001
siesta:     0.000008   -0.000001   -0.000003

siesta: Cell volume =       4813.414368 Ang**3

siesta: Pressure (static):
siesta:                Solid            Molecule  Units
siesta:           0.00000003         -0.00000000  Ry/Bohr**3
siesta:           0.00000321         -0.00000004  eV/Ang**3
siesta:           0.00513819         -0.00006669  kBar
(Free)E+ p_basis*V_orbitals  =       -3227.879316
(Free)Eharris+ p_basis*V_orbitals  =       -3227.879316

siesta: Electric dipole (a.u.)  =    1.007358    0.280185    0.116895
siesta: Electric dipole (Debye) =    2.560448    0.712159    0.297117

cite: Please see "optimization.bib" for an exhaustive BiBTeX file.
cite: Please clearly indicate Siesta version in published work: 5.2.1
cite: This calculation has made use of the following articles
cite: which are encouraged to be cited in a published work.
        Primary SIESTA paper
          DOI: www.doi.org/10.1088/0953-8984/14/11/302


timer: Elapsed wall time (sec) =   11972.159
timer: CPU execution times (sec):

Routine            Calls   Time/call    Tot.time        %
siesta                 1   14360.196   14360.196   100.00
Setup                  1       1.133       1.133     0.01
bands                  1       0.000       0.000     0.00
KSV_init               1       0.000       0.000     0.00
IterGeom             401      35.808   14359.049    99.99
geom_init            401       5.800    2325.682    16.20
state_init           401       0.021       8.406     0.06
hsparse              401       0.002       0.724     0.01
overlap              401       0.018       7.176     0.05
Setup_H0             401       2.842    1139.698     7.94
naefs                802       0.000       0.086     0.00
dnaefs               802       0.000       0.047     0.00
MolMec               802       0.000       0.001     0.00
kinefsm              802       0.014      11.484     0.08
nlefsm               802       0.036      29.069     0.20
DHSCF_Init           401       2.791    1119.005     7.79
DHSCF1               401       0.041      16.359     0.11
InitMesh             401       0.041      16.345     0.11
INITMESH             401       0.000       0.000     0.00
DHSCF2               401       2.750    1102.644     7.68
REMESH               401       0.141      56.354     0.39
REORD              12187       0.007      84.594     0.59
PHION                401       2.037     816.655     5.69
COMM_BSC           13547       0.005      70.663     0.49
POISON              3487       0.254     884.706     6.16
fft                 6974       0.095     662.716     4.61
setup_H             2685       3.734   10024.881    69.81
DHSCF               3086       4.148   12801.000    89.14
DHSCF3              3086       3.625   11185.926    77.90
rhoofd              3086       1.469    4532.943    31.57
XC                  3086       0.777    2398.002    16.70
GXC-CellXC          3086       0.749    2310.610    16.09
gridxc@cellXC       3086       0.749    2310.590    16.09
vmat                3086       0.739    2280.953    15.88
IterSCF             2284       4.034    9213.711    64.16
compute_dm          2284       0.159     363.132     2.53
diagon              2284       0.158     360.318     2.51
r-eigvec            2284       0.070     159.027     1.11
r-buildHS           2284       0.000       0.331     0.00
rdiag               2284       0.069     158.672     1.10
rdiag1              2284       0.004       9.454     0.07
rdiag2              2284       0.008      18.643     0.13
rdiag3              2284       0.055     126.029     0.88
rdiag4              2284       0.002       4.200     0.03
r-buildD            2284       0.087     198.951     1.39
MIXER               1883       0.000       0.736     0.01
PostSCF              401       7.031    2819.351    19.63
FINAL_HF             401       7.031    2819.339    19.63
DHSCF4               401       4.028    1615.056    11.25
dfscf                401       3.606    1445.970    10.07
overfsm              401       0.011       4.364     0.03
writeHSX             401       0.001       0.267     0.00
state_analysis       401       0.000       0.061     0.00
siesta_move          401       0.000       0.167     0.00
Analysis               1       0.001       0.001     0.00
optical                1       0.000       0.000     0.00
  

>> End of run:  18-JUN-2025  12:42:07
Job completed
Job completed
