Executable      : siesta
Version         : 5.2.1
Architecture    : x86_64
Compiler version: GNU-13.3.0
Compiler flags  : -march=nocona -mtune=haswell -ftree-vectorize -fPIC -fstack-protector-strong -fno-plt -O2 -ffunction-sections -pipe -isystem <prefix>/include -I<prefix>/_build_env/include -fdebug-prefix-map=<prefix>/work=/usr/local/src/conda/siesta-5.2.1 -fdebug-prefix-map=<prefix>=/usr/local/src/conda-prefix -I<prefix>/lib -fallow-argument-mismatch -O3
Parallelisations: none
NetCDF support
NetCDF-4 support
Lua support
DFT-D3 support

Runtime information:
* Directory : /home/samba/homes/convidat/proyecto22/optimization/run
* Running in serial mode.
>> Start of run:  17-JUN-2025  17:47:50

                           *********************** 
                           *  WELCOME TO SIESTA  * 
                           *********************** 

 NOTE: Siesta V5 introduces some new defaults for basis-set generation
 NOTE: which might lead to slightly different numerical results.
 NOTE: Please see the manual for full details and compatibility measures.


reinit: Reading from file optimization.fdf

reinit: -----------------------------------------------------------------------
reinit: System Name: 
reinit: -----------------------------------------------------------------------
reinit: System Label: optimization
reinit: -----------------------------------------------------------------------

initatom: Reading input for the pseudopotentials and atomic orbitals ----------
Species number:   1 Atomic number:    6 Label: C
Species number:   2 Atomic number:    7 Label: N
Species number:   3 Atomic number:    1 Label: H
Species number:   4 Atomic number:    8 Label: O

Ground state valence configuration (from tables):   2s02  2p02  3d00  4f00
Ground state valence configuration (from tables):   2s02  2p03  3d00  4f00
Ground state valence configuration (from tables):   1s01  2p00  3d00  4f00
Ground state valence configuration (from tables):   2s02  2p04  3d00  4f00

---- Processing specs for species: C
Reading pseudopotential information in PSML from:
  C.psml
PSML file version: 1.1
Using libxc ids:  101 130
GGA--PBE XC_GGA_X_PBE--XC_GGA_C_PBE pb
PSML uuid: 297821e0-be41-11e7-6802-e1ff7dfff095

---- Processing specs for species: N
Reading pseudopotential information in PSML from:
  N.psml
PSML file version: 1.1
Using libxc ids:  101 130
GGA--PBE XC_GGA_X_PBE--XC_GGA_C_PBE pb
PSML uuid: 31bde650-be41-11e7-78a7-66593edf4b14

---- Processing specs for species: H
Reading pseudopotential information in PSML from:
  H.psml
PSML file version: 1.1
Using libxc ids:  101 130
GGA--PBE XC_GGA_X_PBE--XC_GGA_C_PBE pb
PSML uuid: f95fa9b0-be40-11e7-634a-9594ffff953f

---- Processing specs for species: O
Reading pseudopotential information in PSML from:
  O.psml
PSML file version: 1.1
Using libxc ids:  101 130
GGA--PBE XC_GGA_X_PBE--XC_GGA_C_PBE pb
PSML uuid: 3cff85a0-be41-11e7-6c5c-1b1fe64d18ef

---- Pseudopotential check for C 

Pseudized shells:
2s( 2.00) rc: 1.20
2p( 2.00) rc: 1.26
Valence configuration for ps generation: 2s:2p: Total charge:   4.000000

---- Pseudopotential check for N 

Pseudized shells:
2s( 2.00) rc: 1.21
2p( 3.00) rc: 1.36
Valence configuration for ps generation: 2s:2p: Total charge:   5.000000

---- Pseudopotential check for H 

Pseudized shells:
1s( 1.00) rc: 1.01
2p( 0.00) rc: 0.71
Valence configuration for ps generation: 1s: Total charge:   1.000000

---- Pseudopotential check for O 

Pseudized shells:
2s( 2.00) rc: 1.36
2p( 4.00) rc: 1.46
3d( 0.00) rc: 1.26
Valence configuration for ps generation: 2s:2p: Total charge:   6.000000
For C, standard SIESTA heuristics set lmxkb to 3
 (one more than the basis l, including polarization orbitals).
Use PS.lmax or PS.KBprojectors blocks to override.
For N, standard SIESTA heuristics set lmxkb to 3
 (one more than the basis l, including polarization orbitals).
Use PS.lmax or PS.KBprojectors blocks to override.
For H, standard SIESTA heuristics set lmxkb to 2
 (one more than the basis l, including polarization orbitals).
Use PS.lmax or PS.KBprojectors blocks to override.
For O, standard SIESTA heuristics set lmxkb to 3
 (one more than the basis l, including polarization orbitals).
Use PS.lmax or PS.KBprojectors blocks to override.
C pseudopotential only contains V_ls up to l=1 -- lmxkb reset.
N pseudopotential only contains V_ls up to l=1 -- lmxkb reset.
H pseudopotential only contains V_ls up to l=1 -- lmxkb reset.
O pseudopotential only contains V_ls up to l=2 -- lmxkb reset.

<basis_specs>
===============================================================================
C                    Z=   6    Mass=  12.011        Charge= 0.17977+309
Lmxo=2 Lmxkb= 1    BasisType=split      Semic=F
L=0  Nsemic=0  Cnfigmx=2
          i=1  nzeta=2  polorb=0  (2s)
            splnorm:   0.15000    
               vcte:    40.000    
               rinn:  -0.90000    
               qcoe:    0.0000    
               qyuk:    0.0000    
               qwid:   0.10000E-01
                rcs:    0.0000      0.0000    
            lambdas:    1.0000      1.0000    
L=1  Nsemic=0  Cnfigmx=2
          i=1  nzeta=2  polorb=1  (2p)  (to be polarized perturbatively)
            splnorm:   0.15000    
               vcte:    40.000    
               rinn:  -0.90000    
               qcoe:    0.0000    
               qyuk:    0.0000    
               qwid:   0.10000E-01
                rcs:    0.0000      0.0000    
            lambdas:    1.0000      1.0000    
L=2  Nsemic=0  Cnfigmx=3
          i=1  nzeta=0  polorb=0  (3d)  (perturbative polarization orbital) (from 2p)
-------------------------------------------------------------------------------
L=0  Nkbl=1  erefs: 0.17977+309
L=1  Nkbl=1  erefs: 0.17977+309
===============================================================================
</basis_specs>

Using PAO.SplitTailNorm
atom: Called for C                     (Z =   6)
NOTE: C pseudopotential has channels up to l= 1
NOTE: PAOs with higher l will be generated with V_local
Maximum radius (at nrval) set to   50.00000 8518

read_vps: Pseudopotential generation method:
read_vps: ONCVPSP-3.Hamann's oncvpsp                        
Valence charge in pseudo generation:    4.00000

read_vps: Pseudopotential includes a core correction:
read_vps: Pseudo-core for xc-correction

xc_check: Exchange-correlation functional:
xc_check: GGA Perdew, Burke & Ernzerhof 1996
Got Vlocal (oncv-fit) from psml data
Choosing vlocal chloc cutoff:  4.122282
qtot up to nchloc:    4.00001153
atom: Maximum radius for chlocal:    4.12228
atom: Maximum radius for r*vlocal+2*Zval:    4.12228
Reading KB projs from C psml data
Using scalar-relativistic projectors in PSML file

PSML: Kleinman-Bylander projectors: 
   l= 0   rc=  1.219773   Ekb= 12.963096
   l= 0   rc=  1.219773   Ekb=  0.771007
   l= 1   rc=  1.278952   Ekb= -8.399923
   l= 1   rc=  1.278952   Ekb= -1.755033

PSML: Total number of  Kleinman-Bylander projectors:   8
atom: -------------------------------------------------------------------------

atom: SANKEY-TYPE ORBITALS:
atom: Selected multiple-zeta basis: split     

SPLIT: Orbitals with angular momentum L= 0

SPLIT: Basis orbitals for state 2s

SPLIT: PAO cut-off radius determined from an
SPLIT: energy shift=  0.000735 Ry
Split based on tail norm

   izeta = 1
                 lambda =    1.000000
                     rc =    5.865727
                 energy =   -1.009782
                kinetic =    0.907850
    potential(screened) =   -1.917632
       potential(ionic) =   -5.443189

   izeta = 2
                 rmatch =    3.302919
              splitnorm =    0.150000
                 energy =   -0.812047
                kinetic =    1.580868
    potential(screened) =   -2.392915
       potential(ionic) =   -6.200698

SPLIT: Orbitals with angular momentum L= 1

SPLIT: Basis orbitals for state 2p

SPLIT: PAO cut-off radius determined from an
SPLIT: energy shift=  0.000735 Ry
Split based on tail norm

   izeta = 1
                 lambda =    1.000000
                     rc =    7.564822
                 energy =   -0.387582
                kinetic =    2.372253
    potential(screened) =   -2.759835
       potential(ionic) =   -6.120604

   izeta = 2
                 rmatch =    4.252389
              splitnorm =    0.150000
                 energy =   -0.314961
                kinetic =    3.225377
    potential(screened) =   -3.540338
       potential(ionic) =   -7.207912
*Note: V_local used for l= 2

** Using vlocal for PAOs with L= 2

POLgen: Perturbative polarization orbital with L=  2

POLgen: Polarization orbital for state 2p
*Note: V_local used for lpol= 2

** Using vlocal for PAOs with L= 2
Split based on tail norm

   izeta = 1
                     rc =    7.564822
                 energy =    0.923681
                kinetic =    1.875515
    potential(screened) =   -0.951834
       potential(ionic) =   -3.587740
atom: Total number of Sankey-type orbitals: 13

atm_pop: Valence configuration (for local Pseudopot. screening):
 2s( 2.00)                                                            
 2p( 2.00)                                                            
 3d( 0.00)                                                            
Vna: chval, zval:    4.00000   4.00000

Vna:  Cut-off radius for the neutral-atom potential:   7.564822
comcore: Pseudo-core radius Rcore=  1.671741

atom: _________________________________________________________________________

<basis_specs>
===============================================================================
N                    Z=   7    Mass=  14.007        Charge= 0.17977+309
Lmxo=2 Lmxkb= 1    BasisType=split      Semic=F
L=0  Nsemic=0  Cnfigmx=2
          i=1  nzeta=2  polorb=0  (2s)
            splnorm:   0.15000    
               vcte:    40.000    
               rinn:  -0.90000    
               qcoe:    0.0000    
               qyuk:    0.0000    
               qwid:   0.10000E-01
                rcs:    0.0000      0.0000    
            lambdas:    1.0000      1.0000    
L=1  Nsemic=0  Cnfigmx=2
          i=1  nzeta=2  polorb=1  (2p)  (to be polarized perturbatively)
            splnorm:   0.15000    
               vcte:    40.000    
               rinn:  -0.90000    
               qcoe:    0.0000    
               qyuk:    0.0000    
               qwid:   0.10000E-01
                rcs:    0.0000      0.0000    
            lambdas:    1.0000      1.0000    
L=2  Nsemic=0  Cnfigmx=3
          i=1  nzeta=0  polorb=0  (3d)  (perturbative polarization orbital) (from 2p)
-------------------------------------------------------------------------------
L=0  Nkbl=1  erefs: 0.17977+309
L=1  Nkbl=1  erefs: 0.17977+309
===============================================================================
</basis_specs>

Using PAO.SplitTailNorm
atom: Called for N                     (Z =   7)
NOTE: N pseudopotential has channels up to l= 1
NOTE: PAOs with higher l will be generated with V_local
Maximum radius (at nrval) set to   50.00000 8518

read_vps: Pseudopotential generation method:
read_vps: ONCVPSP-3.Hamann's oncvpsp                        
Valence charge in pseudo generation:    5.00000

read_vps: Pseudopotential includes a core correction:
read_vps: Pseudo-core for xc-correction

xc_check: Exchange-correlation functional:
xc_check: GGA Perdew, Burke & Ernzerhof 1996
Got Vlocal (oncv-fit) from psml data
Choosing vlocal chloc cutoff:  6.038618
qtot up to nchloc:    4.99995109
atom: Maximum radius for chlocal:    6.03862
atom: Maximum radius for r*vlocal+2*Zval:    6.03862
Reading KB projs from N psml data
Using scalar-relativistic projectors in PSML file

PSML: Kleinman-Bylander projectors: 
   l= 0   rc=  1.214864   Ekb= 14.989018
   l= 0   rc=  1.221004   Ekb=  1.272610
   l= 1   rc=  1.375180   Ekb= -8.587810
   l= 1   rc=  1.375180   Ekb= -2.013976

PSML: Total number of  Kleinman-Bylander projectors:   8
atom: -------------------------------------------------------------------------

atom: SANKEY-TYPE ORBITALS:
atom: Selected multiple-zeta basis: split     

SPLIT: Orbitals with angular momentum L= 0

SPLIT: Basis orbitals for state 2s

SPLIT: PAO cut-off radius determined from an
SPLIT: energy shift=  0.000735 Ry
Split based on tail norm

   izeta = 1
                 lambda =    1.000000
                     rc =    5.128853
                 energy =   -1.364951
                kinetic =    1.219328
    potential(screened) =   -2.584278
       potential(ionic) =   -8.061064

   izeta = 2
                 rmatch =    2.799004
              splitnorm =    0.150000
                 energy =   -1.108465
                kinetic =    2.068776
    potential(screened) =   -3.177241
       potential(ionic) =   -9.112461

SPLIT: Orbitals with angular momentum L= 1

SPLIT: Basis orbitals for state 2p

SPLIT: PAO cut-off radius determined from an
SPLIT: energy shift=  0.000735 Ry
Split based on tail norm

   izeta = 1
                 lambda =    1.000000
                     rc =    6.614864
                 energy =   -0.520217
                kinetic =    3.392575
    potential(screened) =   -3.912792
       potential(ionic) =   -9.170860

   izeta = 2
                 rmatch =    3.582433
              splitnorm =    0.150000
                 energy =   -0.423250
                kinetic =    4.550527
    potential(screened) =   -4.973778
       potential(ionic) =  -10.717060
*Note: V_local used for l= 2

** Using vlocal for PAOs with L= 2

POLgen: Perturbative polarization orbital with L=  2

POLgen: Polarization orbital for state 2p
*Note: V_local used for lpol= 2

** Using vlocal for PAOs with L= 2
Split based on tail norm

   izeta = 1
                     rc =    6.614864
                 energy =    1.365983
                kinetic =    2.607373
    potential(screened) =   -1.241390
       potential(ionic) =   -5.257349
atom: Total number of Sankey-type orbitals: 13

atm_pop: Valence configuration (for local Pseudopot. screening):
 2s( 2.00)                                                            
 2p( 3.00)                                                            
 3d( 0.00)                                                            
Vna: chval, zval:    5.00000   5.00000

Vna:  Cut-off radius for the neutral-atom potential:   6.614864
comcore: Pseudo-core radius Rcore=  1.572221

atom: _________________________________________________________________________

<basis_specs>
===============================================================================
H                    Z=   1    Mass=  1.0080        Charge= 0.17977+309
Lmxo=1 Lmxkb= 1    BasisType=split      Semic=F
L=0  Nsemic=0  Cnfigmx=1
          i=1  nzeta=2  polorb=1  (1s)  (to be polarized perturbatively)
            splnorm:   0.15000    
               vcte:    40.000    
               rinn:  -0.90000    
               qcoe:    0.0000    
               qyuk:    0.0000    
               qwid:   0.10000E-01
                rcs:    0.0000      0.0000    
            lambdas:    1.0000      1.0000    
L=1  Nsemic=0  Cnfigmx=2
          i=1  nzeta=0  polorb=0  (2p)  (perturbative polarization orbital) (from 1s)
-------------------------------------------------------------------------------
L=0  Nkbl=1  erefs: 0.17977+309
L=1  Nkbl=1  erefs: 0.17977+309
===============================================================================
</basis_specs>

Using PAO.SplitTailNorm
atom: Called for H                     (Z =   1)
Maximum radius (at nrval) set to   50.00000 8518

read_vps: Pseudopotential generation method:
read_vps: ONCVPSP-3.Hamann's oncvpsp                        
Valence charge in pseudo generation:    1.00000

xc_check: Exchange-correlation functional:
xc_check: GGA Perdew, Burke & Ernzerhof 1996
Got Vlocal (oncv-fit) from psml data
Choosing vlocal chloc cutoff:  1.926399
qtot up to nchloc:    0.99999831
atom: Maximum radius for chlocal:    1.92640
atom: Maximum radius for r*vlocal+2*Zval:    1.92640
Reading KB projs from H psml data
Using scalar-relativistic projectors in PSML file

PSML: Kleinman-Bylander projectors: 
   l= 0   rc=  1.022342   Ekb= -3.402247
   l= 0   rc=  1.022342   Ekb= -1.068968
   l= 1   rc=  0.714575   Ekb= -1.006642

PSML: Total number of  Kleinman-Bylander projectors:   5
atom: -------------------------------------------------------------------------

atom: SANKEY-TYPE ORBITALS:
atom: Selected multiple-zeta basis: split     

SPLIT: Orbitals with angular momentum L= 0

SPLIT: Basis orbitals for state 1s

SPLIT: PAO cut-off radius determined from an
SPLIT: energy shift=  0.000735 Ry
Split based on tail norm

   izeta = 1
                 lambda =    1.000000
                     rc =    7.238756
                 energy =   -0.476315
                kinetic =    0.887622
    potential(screened) =   -1.363936
       potential(ionic) =   -1.882865

   izeta = 2
                 rmatch =    4.044510
              splitnorm =    0.150000
                 energy =   -0.376652
                kinetic =    1.480380
    potential(screened) =   -1.857033
       potential(ionic) =   -2.405174

POLgen: Perturbative polarization orbital with L=  1

POLgen: Polarization orbital for state 1s
Split based on tail norm

   izeta = 1
                     rc =    7.238756
                 energy =    0.508786
                kinetic =    1.081322
    potential(screened) =   -0.572537
       potential(ionic) =   -1.035092
atom: Total number of Sankey-type orbitals:  5

atm_pop: Valence configuration (for local Pseudopot. screening):
 1s( 1.00)                                                            
 2p( 0.00)                                                            
Vna: chval, zval:    1.00000   1.00000

Vna:  Cut-off radius for the neutral-atom potential:   7.238756

atom: _________________________________________________________________________

<basis_specs>
===============================================================================
O                    Z=   8    Mass=  15.999        Charge= 0.17977+309
Lmxo=2 Lmxkb= 2    BasisType=split      Semic=F
L=0  Nsemic=0  Cnfigmx=2
          i=1  nzeta=2  polorb=0  (2s)
            splnorm:   0.15000    
               vcte:    40.000    
               rinn:  -0.90000    
               qcoe:    0.0000    
               qyuk:    0.0000    
               qwid:   0.10000E-01
                rcs:    0.0000      0.0000    
            lambdas:    1.0000      1.0000    
L=1  Nsemic=0  Cnfigmx=2
          i=1  nzeta=2  polorb=1  (2p)  (to be polarized perturbatively)
            splnorm:   0.15000    
               vcte:    40.000    
               rinn:  -0.90000    
               qcoe:    0.0000    
               qyuk:    0.0000    
               qwid:   0.10000E-01
                rcs:    0.0000      0.0000    
            lambdas:    1.0000      1.0000    
L=2  Nsemic=0  Cnfigmx=3
          i=1  nzeta=0  polorb=0  (3d)  (perturbative polarization orbital) (from 2p)
-------------------------------------------------------------------------------
L=0  Nkbl=1  erefs: 0.17977+309
L=1  Nkbl=1  erefs: 0.17977+309
L=2  Nkbl=1  erefs: 0.17977+309
===============================================================================
</basis_specs>

Using PAO.SplitTailNorm
atom: Called for O                     (Z =   8)
Maximum radius (at nrval) set to   50.00000 8518

read_vps: Pseudopotential generation method:
read_vps: ONCVPSP-3.Hamann's oncvpsp                        
Valence charge in pseudo generation:    6.00000

read_vps: Pseudopotential includes a core correction:
read_vps: Pseudo-core for xc-correction

xc_check: Exchange-correlation functional:
xc_check: GGA Perdew, Burke & Ernzerhof 1996
Got Vlocal (oncv-fit) from psml data
Choosing vlocal chloc cutoff:  6.020499
qtot up to nchloc:    6.00001015
atom: Maximum radius for chlocal:    6.02050
atom: Maximum radius for r*vlocal+2*Zval:    6.02050
Reading KB projs from O psml data
Using scalar-relativistic projectors in PSML file

PSML: Kleinman-Bylander projectors: 
   l= 0   rc=  1.372412   Ekb= 12.113471
   l= 0   rc=  1.372412   Ekb=  1.648048
   l= 1   rc=  1.474132   Ekb= -9.434259
   l= 1   rc=  1.474132   Ekb= -2.298541
   l= 2   rc=  1.277664   Ekb= -2.663910

PSML: Total number of  Kleinman-Bylander projectors:  13
atom: -------------------------------------------------------------------------

atom: SANKEY-TYPE ORBITALS:
atom: Selected multiple-zeta basis: split     

SPLIT: Orbitals with angular momentum L= 0

SPLIT: Basis orbitals for state 2s

SPLIT: PAO cut-off radius determined from an
SPLIT: energy shift=  0.000735 Ry
Split based on tail norm

   izeta = 1
                 lambda =    1.000000
                     rc =    4.566021
                 energy =   -1.760280
                kinetic =    1.535743
    potential(screened) =   -3.296022
       potential(ionic) =  -11.142033

   izeta = 2
                 rmatch =    2.434474
              splitnorm =    0.150000
                 energy =   -1.441584
                kinetic =    2.530209
    potential(screened) =   -3.971793
       potential(ionic) =  -12.502519

SPLIT: Orbitals with angular momentum L= 1

SPLIT: Basis orbitals for state 2p

SPLIT: PAO cut-off radius determined from an
SPLIT: energy shift=  0.000735 Ry
Split based on tail norm

   izeta = 1
                 lambda =    1.000000
                     rc =    5.912921
                 energy =   -0.662875
                kinetic =    4.463269
    potential(screened) =   -5.126144
       potential(ionic) =  -12.659411

   izeta = 2
                 rmatch =    3.103756
              splitnorm =    0.150000
                 energy =   -0.538095
                kinetic =    5.926477
    potential(screened) =   -6.464572
       potential(ionic) =  -14.688886

POLgen: Perturbative polarization orbital with L=  2

POLgen: Polarization orbital for state 2p
Split based on tail norm

   izeta = 1
                     rc =    5.912921
                 energy =    1.865729
                kinetic =    3.536681
    potential(screened) =   -1.670952
       potential(ionic) =   -7.378590
atom: Total number of Sankey-type orbitals: 13

atm_pop: Valence configuration (for local Pseudopot. screening):
 2s( 2.00)                                                            
 2p( 4.00)                                                            
 3d( 0.00)                                                            
Vna: chval, zval:    6.00000   6.00000

Vna:  Cut-off radius for the neutral-atom potential:   5.912921
comcore: Pseudo-core radius Rcore=  1.354557

atom: _________________________________________________________________________

prinput: Basis input 

PAO.BasisType split     

%block ChemicalSpeciesLabel
    1    6 C                       # Species index, atomic number, species label
    2    7 N                       # Species index, atomic number, species label
    3    1 H                       # Species index, atomic number, species label
    4    8 O                       # Species index, atomic number, species label
%endblock ChemicalSpeciesLabel

%block PAO.Basis                 # Define Basis set
# WARNING: This information might be incomplete!
C                     2                    # Species label, number of l-shells
 n=2   0   2                         # n, l, Nzeta 
   5.866      3.303   
   1.000      1.000   
 n=2   1   2 P   1                   # n, l, Nzeta, Polarization, NzetaPol
   7.565      4.252   
   1.000      1.000   
N                     2                    # Species label, number of l-shells
 n=2   0   2                         # n, l, Nzeta 
   5.129      2.799   
   1.000      1.000   
 n=2   1   2 P   1                   # n, l, Nzeta, Polarization, NzetaPol
   6.615      3.582   
   1.000      1.000   
H                     1                    # Species label, number of l-shells
 n=1   0   2 P   1                   # n, l, Nzeta, Polarization, NzetaPol
   7.239      4.045   
   1.000      1.000   
O                     2                    # Species label, number of l-shells
 n=2   0   2                         # n, l, Nzeta 
   4.566      2.434   
   1.000      1.000   
 n=2   1   2 P   1                   # n, l, Nzeta, Polarization, NzetaPol
   5.913      3.104   
   1.000      1.000   
%endblock PAO.Basis

prinput: ----------------------------------------------------------------------

Dumping basis to NetCDF file C.ion.nc
Dumping basis to NetCDF file N.ion.nc
Dumping basis to NetCDF file H.ion.nc
Dumping basis to NetCDF file O.ion.nc
coor:   Atomic-coordinates input format  =     Cartesian coordinates
coor:                                          (in Angstroms)

siesta: Atomic coordinates (Bohr) and species
siesta:     -1.90755   3.23941   0.00651  1        1
siesta:      0.64745   4.60007   0.00755  1        2
siesta:      2.66900   2.69498   0.03342  2        3
siesta:      2.31085  -2.25659  -0.01324  1        4
siesta:      0.59617  -4.28750  -0.02832  1        5
siesta:     -2.00474  -3.85209  -0.01203  1        6
siesta:     -2.91931  -1.36761  -0.00334  1        7
siesta:     -1.19722   0.68490  -0.00149  1        8
siesta:      1.44920   0.25005   0.00301  1        9
siesta:     -4.56978   4.21276   0.01218  1       10
siesta:      0.63451   6.48999   0.01261  3       11
siesta:      4.55758   2.74619   0.07594  3       12
siesta:     -4.78440  -1.06272   0.00127  3       13
siesta:     -3.82911  -6.07069  -0.00338  4       14
siesta:      1.23593  -6.06560  -0.05179  3       15
siesta:      4.16826  -2.60020  -0.01407  3       16
siesta:     -2.88336  -8.60991   0.00071  3       17
siesta:     -5.89628   4.69775   2.46983  1       18
siesta:     -5.47901   6.96143   3.77403  2       19
siesta:     -3.61808   7.22227   3.97392  3       20
siesta:     -6.30067   6.85346   5.47235  3       21
siesta:     -7.76143   4.63942   2.17171  3       22
siesta:     -5.42535   3.33394   3.69021  3       23
siesta:     -4.55861   5.84673  -0.93707  3       24
siesta:     -5.61517   2.95691  -0.93707  3       25

siesta: System type = molecule  

initatomlists: Number of atoms, orbitals, and projectors:     25   229   169

coxmol: Writing XMOL coordinates into file optimization.xyz                                                                                                                                                                                                                    

siesta: ******************** Simulation parameters ****************************
siesta:
siesta: The following are some of the parameters of the simulation.
siesta: A complete list of the parameters used, including default values,
siesta: can be found in file out.fdf
siesta:
redata: Spin configuration                          = none
redata: Number of spin components                   = 1
redata: Time-Reversal Symmetry                      = T
redata: Spin spiral                                 = F
redata: Long output                                 =   F
redata: Number of Atomic Species                    =        4
redata: Charge density info will appear in .RHO file
redata: Write Mulliken charges (when)               = none
redata: Write Mulliken Pop.                         = NO
redata: Write Hirshfeld charges (when)              = none
redata: Write Voronoi charges (when)                = none
redata: Write spin charge (when)                    = none
redata: Matel table size (NRTAB)                    =     1024
redata: Mesh Cutoff                                 =   300.0000 Ry
redata: Net charge of the system                    =     0.0000 |e|
redata: Min. number of SCF Iter                     =        0
redata: Max. number of SCF Iter                     =     1000
redata: SCF convergence failure will abort job
redata: SCF mix quantity                            = Hamiltonian
redata: Mix DM or H after convergence               =   F
redata: Recompute H after scf cycle                 =   F
redata: Mix DM in first SCF step                    =   T
redata: Write Pulay info on disk                    =   F
redata: New DM Occupancy tolerance                  = 0.000000000001
redata: No kicks to SCF
redata: DM Mixing Weight for Kicks                  =     0.5000
redata: Require Harris convergence for SCF          =   F
redata: Harris energy tolerance for SCF             =     0.000100 eV
redata: Require DM convergence for SCF              =   T
redata: DM tolerance for SCF                        =     0.000100
redata: Require EDM convergence for SCF             =   F
redata: EDM tolerance for SCF                       =     0.001000 eV
redata: Require H convergence for SCF               =   T
redata: Hamiltonian tolerance for SCF               =     0.001000 eV
redata: Require (free) Energy convergence for SCF   =   F
redata: (free) Energy tolerance for SCF             =     0.000100 eV
redata: Using DFT-D3 dispersion                     =   F
redata: Using Saved Data (generic)                  =   F
redata: Use continuation files for DM               =   T
redata: Neglect nonoverlap interactions             =   F
redata: Method of Calculation                       = Diagonalization
redata: Electronic Temperature                      =   299.9863 K
redata: Fix the spin of the system                  =   F
redata: Max. number of TDED Iter                    =        1
redata: Number of TDED substeps                     =        3
redata: Dynamics option                             = CG coord. optimization
redata: Variable cell                               =   F
redata: Use continuation files for CG               =   F
redata: Max atomic displ per move                   =     0.1058 Ang
redata: Maximum number of optimization moves        =      200
redata: Force tolerance                             =     0.0050 eV/Ang
mix.SCF: Pulay mixing                            = Pulay
mix.SCF:    Variant                              = stable
mix.SCF:    History steps                        = 2
mix.SCF:    Linear mixing weight                 =     0.250000
mix.SCF:    Mixing weight                        =     0.250000
mix.SCF:    SVD condition                        = 0.1000E-07
redata: Save all siesta data in one NC              =   F
redata: ***********************************************************************

%block SCF.Mixers
  Pulay
%endblock SCF.Mixers

%block SCF.Mixer.Pulay
  # Mixing method
  method pulay
  variant stable

  # Mixing options
  weight 0.2500
  weight.linear 0.2500
  history 2
%endblock SCF.Mixer.Pulay

DM_history_depth set to one: no extrapolation allowed by default for geometry relaxation
Size of DM history Fstack: 1
Total number of electrons:    68.000000
Total ionic charge:    68.000000

siesta: k-grid: Number of k-points = 1
siesta: k-point is Gamma-only

diag: Algorithm                                     = D&C
diag: Used triangular part                          = Lower
diag: Absolute tolerance                            =  0.100E-15
diag: Orthogonalization factor                      =  0.100E-05
diag: Memory factor                                 =  1.0000


ts: **************************************************************
ts: Save H and S matrices                           =    F
ts: Save DM and EDM matrices                        =    F
ts: Only save the overlap matrix S                  =    F
ts: **************************************************************

************************ Begin: TS CHECKS AND WARNINGS ************************
************************ End: TS CHECKS AND WARNINGS **************************


                     ====================================
                        Begin CG opt. move =      0
                     ====================================

outcell: Unit cell vectors (Ang):
       16.518939    0.000000    0.000000
        0.000000   18.378032    0.000000
        0.000000    0.000000   13.391718

outcell: Cell vector modules (Ang)   :   16.518939   18.378032   13.391718
outcell: Cell angles (23,13,12) (deg):     90.0000     90.0000     90.0000
outcell: Cell volume (Ang**3)        :   4065.5326
<dSpData1D:S at geom step 0
  <sparsity:sparsity for geom step 0
    nrows_g=229 nrows=229 sparsity=.9164 nnzs=48057, refcount: 7>
  <dData1D:(new from dSpData1D) n=48057, refcount: 1>
refcount: 1>
new_DM -- step:     1
Initializing Density Matrix...

Attempting to read DM from file... Failed...
DM filled with atomic data:
<dSpData2D:DM initialized from atoms
  <sparsity:sparsity for geom step 0
    nrows_g=229 nrows=229 sparsity=.9164 nnzs=48057, refcount: 8>
  <dData2D:DM n=48057 m=1, refcount: 1>
refcount: 1>
No. of atoms with KB's overlaping orbs in proc 0. Max # of overlaps:      25     181

InitMesh: MESH = 180 x 192 x 144 = 4976640
InitMesh: Mesh cutoff (required, used) =   300.000   301.652 Ry
New grid distribution [1]: sub = 2

stepf: Fermi-Dirac step function

siesta: Program's energy decomposition (eV):
siesta: Ebs     =      -610.597782
siesta: Eions   =      4751.384357
siesta: Ena     =      1231.196576
siesta: Ekin    =      2106.861313
siesta: Enl     =      -230.130327
siesta: Eso     =         0.000000
siesta: Edftu   =         0.000000
siesta: DEna    =      -206.378444
siesta: DUscf   =        31.848470
siesta: DUext   =         0.000000
siesta: Ex      =      -924.930061
siesta: Ec      =       -79.275444
siesta: Exc     =     -1004.205505
siesta: EbV     =         0.000000
siesta: eta*DQ  =         0.000000
siesta: Emadel  =         0.000000
siesta: Emeta   =         0.000000
siesta: Emolmec =         0.000000
siesta: Ekinion =         0.000000
siesta: Eharris =     -2792.743299
siesta: Etot    =     -2822.192275
siesta: FreeEng =     -2822.192275

        iscf     Eharris(eV)        E_KS(eV)     FreeEng(eV)     dDmax    Ef(eV) dHmax(eV)
   scf:    1    -2792.743299    -2822.192275    -2822.192275  1.949309 -7.885389 13.108689
timer: Routine,Calls,Time,% = IterSCF        1       3.547  15.45
   scf:    2    -2836.623354    -2830.780983    -2830.780983  0.273719 -5.961653  5.853324
   scf:    3    -2834.045177    -2833.015887    -2833.015887  0.220918 -4.505404  1.240346
   scf:    4    -2833.187580    -2833.119453    -2833.119453  0.044995 -4.298111  0.537443
   scf:    5    -2833.176176    -2833.150528    -2833.150528  0.018735 -4.193287  0.286165
   scf:    6    -2833.166948    -2833.159948    -2833.159948  0.017410 -4.108368  0.105648
   scf:    7    -2833.161073    -2833.160588    -2833.160588  0.005143 -4.078456  0.047326
   scf:    8    -2833.160769    -2833.160688    -2833.160688  0.001782 -4.067359  0.017451
   scf:    9    -2833.160774    -2833.160734    -2833.160734  0.000669 -4.067140  0.009398
   scf:   10    -2833.160776    -2833.160757    -2833.160757  0.000700 -4.067380  0.004106
   scf:   11    -2833.160762    -2833.160760    -2833.160760  0.000257 -4.067658  0.002084
   scf:   12    -2833.160760    -2833.160760    -2833.160760  0.000181 -4.067855  0.000605
   scf:   13    -2833.160760    -2833.160760    -2833.160760  0.000034 -4.067889  0.000274

SCF Convergence by DM+H criterion
max |DM_out - DM_in|         :     0.0000343377
max |H_out - H_in|      (eV) :     0.0002740830
SCF cycle converged after 13 iterations

Using DM_out to compute the final energy and forces
No. of atoms with KB's overlaping orbs in proc 0. Max # of overlaps:      25     181

siesta: E_KS(eV) =            -2833.1608

siesta: E_KS - E_eggbox =     -2833.1608

siesta: Atomic forces (eV/Ang):
----------------------------------------
   Tot    0.008356    0.003325    0.003148
----------------------------------------
   Max    8.039694
   Res    2.614062    sqrt( Sum f_i^2 / 3N )
----------------------------------------
   Max    8.039694    constrained

Stress tensor Voigt[x,y,z,yz,xz,xy] (kbar):       -7.11       -5.50       -3.60        0.59       -1.22        0.97
(Free)E + p*V (eV/cell)    -2819.4489
Target enthalpy (eV/cell)    -2833.1608

                     ====================================
                        Begin CG opt. move =      1
                     ====================================

outcell: Unit cell vectors (Ang):
       16.518939    0.000000    0.000000
        0.000000   18.378032    0.000000
        0.000000    0.000000   13.391718

outcell: Cell vector modules (Ang)   :   16.518939   18.378032   13.391718
outcell: Cell angles (23,13,12) (deg):     90.0000     90.0000     90.0000
outcell: Cell volume (Ang**3)        :   4065.5326
<dSpData1D:S at geom step 1
  <sparsity:sparsity for geom step 1
    nrows_g=229 nrows=229 sparsity=.9180 nnzs=48139, refcount: 7>
  <dData1D:(new from dSpData1D) n=48139, refcount: 1>
refcount: 1>
new_DM -- step:     2
Re-using DM from previous geometries...
Number of DMs in history: 1
 DM extrapolation coefficients: 
1   1.00000
New DM after history re-use:
<dSpData2D:SpM extrapolated using coords
  <sparsity:sparsity for geom step 1
    nrows_g=229 nrows=229 sparsity=.9180 nnzs=48139, refcount: 9>
  <dData2D:(temp array for extrapolation) n=48139 m=1, refcount: 1>
refcount: 1>
No. of atoms with KB's overlaping orbs in proc 0. Max # of overlaps:      25     181

InitMesh: MESH = 180 x 192 x 144 = 4976640
InitMesh: Mesh cutoff (required, used) =   300.000   301.652 Ry
New grid distribution [1]: sub = 2

        iscf     Eharris(eV)        E_KS(eV)     FreeEng(eV)     dDmax    Ef(eV) dHmax(eV)
   scf:    1    -2835.247781    -2834.957773    -2834.957773  0.088355 -3.528445  0.953688
   scf:    2    -2834.126104    -2834.742947    -2834.742947  0.084890 -4.221086  2.031537
   scf:    3    -2835.099574    -2835.021206    -2835.021206  0.061813 -3.762227  0.141985
   scf:    4    -2835.022277    -2835.021790    -2835.021790  0.001572 -3.774877  0.077232
   scf:    5    -2835.022128    -2835.021990    -2835.021990  0.001679 -3.784871  0.014831
   scf:    6    -2835.022011    -2835.022001    -2835.022001  0.000470 -3.786152  0.004663
   scf:    7    -2835.022007    -2835.022005    -2835.022005  0.000506 -3.786914  0.001952
   scf:    8    -2835.022006    -2835.022005    -2835.022005  0.000171 -3.786976  0.001372
   scf:    9    -2835.022005    -2835.022005    -2835.022005  0.000151 -3.787009  0.000485
   scf:   10    -2835.022005    -2835.022005    -2835.022005  0.000029 -3.787003  0.000198

SCF Convergence by DM+H criterion
max |DM_out - DM_in|         :     0.0000286990
max |H_out - H_in|      (eV) :     0.0001980359
SCF cycle converged after 10 iterations

Using DM_out to compute the final energy and forces
No. of atoms with KB's overlaping orbs in proc 0. Max # of overlaps:      25     181

siesta: E_KS(eV) =            -2835.0220

siesta: Atomic forces (eV/Ang):
----------------------------------------
   Tot   -0.002100   -0.010268    0.001000
----------------------------------------
   Max    5.379214
   Res    1.594331    sqrt( Sum f_i^2 / 3N )
----------------------------------------
   Max    5.379214    constrained

Stress tensor Voigt[x,y,z,yz,xz,xy] (kbar):       -5.16       -3.39       -3.02        0.32       -0.75        0.38
(Free)E + p*V (eV/cell)    -2825.2397
Target enthalpy (eV/cell)    -2835.0220

                     ====================================
                        Begin CG opt. move =      2
                     ====================================

outcell: Unit cell vectors (Ang):
       16.518939    0.000000    0.000000
        0.000000   18.378032    0.000000
        0.000000    0.000000   13.391718

outcell: Cell vector modules (Ang)   :   16.518939   18.378032   13.391718
outcell: Cell angles (23,13,12) (deg):     90.0000     90.0000     90.0000
outcell: Cell volume (Ang**3)        :   4065.5326
<dSpData1D:S at geom step 2
  <sparsity:sparsity for geom step 2
    nrows_g=229 nrows=229 sparsity=.9191 nnzs=48197, refcount: 7>
  <dData1D:(new from dSpData1D) n=48197, refcount: 1>
refcount: 1>
new_DM -- step:     3
Re-using DM from previous geometries...
Number of DMs in history: 1
 DM extrapolation coefficients: 
1   1.00000
New DM after history re-use:
<dSpData2D:SpM extrapolated using coords
  <sparsity:sparsity for geom step 2
    nrows_g=229 nrows=229 sparsity=.9191 nnzs=48197, refcount: 9>
  <dData2D:(temp array for extrapolation) n=48197 m=1, refcount: 1>
refcount: 1>
Note: For starting DM, Qtot, Tr[D*S] =         68.00000000         67.84018035
No. of atoms with KB's overlaping orbs in proc 0. Max # of overlaps:      25     178

InitMesh: MESH = 180 x 192 x 144 = 4976640
InitMesh: Mesh cutoff (required, used) =   300.000   301.652 Ry
New grid distribution [1]: sub = 2

        iscf     Eharris(eV)        E_KS(eV)     FreeEng(eV)     dDmax    Ef(eV) dHmax(eV)
   scf:    1    -2835.677857    -2835.863853    -2835.863853  0.119906 -3.407067  1.973072
   scf:    2    -2833.544964    -2835.276965    -2835.276965  0.163055 -4.644693  4.159868
   scf:    3    -2836.295813    -2836.055978    -2836.055978  0.118827 -3.832201  0.239447
   scf:    4    -2836.058559    -2836.057392    -2836.057392  0.002564 -3.842875  0.131668
   scf:    5    -2836.058268    -2836.057911    -2836.057911  0.002926 -3.851609  0.020958
   scf:    6    -2836.057959    -2836.057937    -2836.057937  0.000830 -3.852678  0.005811
   scf:    7    -2836.057950    -2836.057944    -2836.057944  0.000648 -3.853096  0.002717
   scf:    8    -2836.057947    -2836.057946    -2836.057946  0.000293 -3.853298  0.001850
   scf:    9    -2836.057947    -2836.057946    -2836.057946  0.000217 -3.853493  0.000742
   scf:   10    -2836.057946    -2836.057946    -2836.057946  0.000057 -3.853557  0.000411

SCF Convergence by DM+H criterion
max |DM_out - DM_in|         :     0.0000567301
max |H_out - H_in|      (eV) :     0.0004106163
SCF cycle converged after 10 iterations

Using DM_out to compute the final energy and forces
No. of atoms with KB's overlaping orbs in proc 0. Max # of overlaps:      25     178

siesta: E_KS(eV) =            -2836.0579

siesta: Atomic forces (eV/Ang):
----------------------------------------
   Tot    0.001179   -0.020434   -0.003288
----------------------------------------
   Max    5.495905
   Res    1.354943    sqrt( Sum f_i^2 / 3N )
----------------------------------------
   Max    5.495905    constrained

Stress tensor Voigt[x,y,z,yz,xz,xy] (kbar):       -3.46       -1.39       -2.24       -0.10       -0.08       -0.57
(Free)E + p*V (eV/cell)    -2830.0597
Target enthalpy (eV/cell)    -2836.0579

                     ====================================
                        Begin CG opt. move =      3
                     ====================================

outcell: Unit cell vectors (Ang):
       16.518939    0.000000    0.000000
        0.000000   18.378032    0.000000
        0.000000    0.000000   13.391718

outcell: Cell vector modules (Ang)   :   16.518939   18.378032   13.391718
outcell: Cell angles (23,13,12) (deg):     90.0000     90.0000     90.0000
outcell: Cell volume (Ang**3)        :   4065.5326
<dSpData1D:S at geom step 3
  <sparsity:sparsity for geom step 3
    nrows_g=229 nrows=229 sparsity=.9191 nnzs=48197, refcount: 7>
  <dData1D:(new from dSpData1D) n=48197, refcount: 1>
refcount: 1>
new_DM -- step:     4
Re-using DM from previous geometries...
Number of DMs in history: 1
 DM extrapolation coefficients: 
1   1.00000
New DM after history re-use:
<dSpData2D:SpM extrapolated using coords
  <sparsity:sparsity for geom step 3
    nrows_g=229 nrows=229 sparsity=.9191 nnzs=48197, refcount: 9>
  <dData2D:(temp array for extrapolation) n=48197 m=1, refcount: 1>
refcount: 1>
No. of atoms with KB's overlaping orbs in proc 0. Max # of overlaps:      25     178

InitMesh: MESH = 180 x 192 x 144 = 4976640
InitMesh: Mesh cutoff (required, used) =   300.000   301.652 Ry
New grid distribution [1]: sub = 2

        iscf     Eharris(eV)        E_KS(eV)     FreeEng(eV)     dDmax    Ef(eV) dHmax(eV)
   scf:    1    -2836.058204    -2836.058037    -2836.058037  0.001462 -3.857084  0.021952
   scf:    2    -2836.057775    -2836.057969    -2836.057969  0.001788 -3.844842  0.048704
   scf:    3    -2836.058083    -2836.058057    -2836.058057  0.001286 -3.852761  0.002429
   scf:    4    -2836.058057    -2836.058057    -2836.058057  0.000027 -3.852625  0.001304
   scf:    5    -2836.058057    -2836.058057    -2836.058057  0.000028 -3.852539  0.000243

SCF Convergence by DM+H criterion
max |DM_out - DM_in|         :     0.0000277212
max |H_out - H_in|      (eV) :     0.0002431702
SCF cycle converged after 5 iterations

Using DM_out to compute the final energy and forces
No. of atoms with KB's overlaping orbs in proc 0. Max # of overlaps:      25     178

siesta: E_KS(eV) =            -2836.0581

siesta: Atomic forces (eV/Ang):
----------------------------------------
   Tot    0.001099   -0.020559   -0.003259
----------------------------------------
   Max    5.495194
   Res    1.348125    sqrt( Sum f_i^2 / 3N )
----------------------------------------
   Max    5.495194    constrained

Stress tensor Voigt[x,y,z,yz,xz,xy] (kbar):       -3.47       -1.40       -2.25       -0.10       -0.09       -0.56
(Free)E + p*V (eV/cell)    -2830.0372
Target enthalpy (eV/cell)    -2836.0581

cgvc: Finished line minimization    1.  Mean atomic displacement =    0.0762

                     ====================================
                        Begin CG opt. move =      4
                     ====================================

outcell: Unit cell vectors (Ang):
       16.518939    0.000000    0.000000
        0.000000   18.378032    0.000000
        0.000000    0.000000   13.391718

outcell: Cell vector modules (Ang)   :   16.518939   18.378032   13.391718
outcell: Cell angles (23,13,12) (deg):     90.0000     90.0000     90.0000
outcell: Cell volume (Ang**3)        :   4065.5326
<dSpData1D:S at geom step 4
  <sparsity:sparsity for geom step 4
    nrows_g=229 nrows=229 sparsity=.9148 nnzs=47971, refcount: 7>
  <dData1D:(new from dSpData1D) n=47971, refcount: 1>
refcount: 1>
new_DM -- step:     5
Re-using DM from previous geometries...
Number of DMs in history: 1
 DM extrapolation coefficients: 
1   1.00000
New DM after history re-use:
<dSpData2D:SpM extrapolated using coords
  <sparsity:sparsity for geom step 4
    nrows_g=229 nrows=229 sparsity=.9148 nnzs=47971, refcount: 9>
  <dData2D:(temp array for extrapolation) n=47971 m=1, refcount: 1>
refcount: 1>
No. of atoms with KB's overlaping orbs in proc 0. Max # of overlaps:      25     178

InitMesh: MESH = 180 x 192 x 144 = 4976640
InitMesh: Mesh cutoff (required, used) =   300.000   301.652 Ry
New grid distribution [1]: sub = 2

        iscf     Eharris(eV)        E_KS(eV)     FreeEng(eV)     dDmax    Ef(eV) dHmax(eV)
   scf:    1    -2838.104895    -2837.311905    -2837.311905  0.171329 -3.417012  2.163673
   scf:    2    -2834.568751    -2836.622238    -2836.622238  0.172042 -3.437460  4.510086
   scf:    3    -2837.835695    -2837.544294    -2837.544294  0.105598 -2.528443  0.299789
   scf:    4    -2837.548745    -2837.546771    -2837.546771  0.004497 -2.546153  0.172737
   scf:    5    -2837.548188    -2837.547624    -2837.547624  0.003277 -2.586281  0.031207
   scf:    6    -2837.547692    -2837.547663    -2837.547663  0.000967 -2.598691  0.009043
   scf:    7    -2837.547680    -2837.547672    -2837.547672  0.000352 -2.602286  0.006435
   scf:    8    -2837.547678    -2837.547675    -2837.547675  0.000207 -2.602516  0.003677
   scf:    9    -2837.547677    -2837.547676    -2837.547676  0.000166 -2.602340  0.001313
   scf:   10    -2837.547676    -2837.547676    -2837.547676  0.000096 -2.602167  0.000384

SCF Convergence by DM+H criterion
max |DM_out - DM_in|         :     0.0000963309
max |H_out - H_in|      (eV) :     0.0003838074
SCF cycle converged after 10 iterations

Using DM_out to compute the final energy and forces
No. of atoms with KB's overlaping orbs in proc 0. Max # of overlaps:      25     178

siesta: E_KS(eV) =            -2837.5477

siesta: Atomic forces (eV/Ang):
----------------------------------------
   Tot    0.003991    0.013923   -0.004699
----------------------------------------
   Max    5.092199
   Res    0.944284    sqrt( Sum f_i^2 / 3N )
----------------------------------------
   Max    5.092199    constrained

Stress tensor Voigt[x,y,z,yz,xz,xy] (kbar):       -2.10        1.65       -0.81       -0.01       -0.17        0.51
(Free)E + p*V (eV/cell)    -2836.4826
Target enthalpy (eV/cell)    -2837.5477

                     ====================================
                        Begin CG opt. move =      5
                     ====================================

outcell: Unit cell vectors (Ang):
       16.518939    0.000000    0.000000
        0.000000   18.378032    0.000000
        0.000000    0.000000   13.391718

outcell: Cell vector modules (Ang)   :   16.518939   18.378032   13.391718
outcell: Cell angles (23,13,12) (deg):     90.0000     90.0000     90.0000
outcell: Cell volume (Ang**3)        :   4065.5326
<dSpData1D:S at geom step 5
  <sparsity:sparsity for geom step 5
    nrows_g=229 nrows=229 sparsity=.9145 nnzs=47955, refcount: 7>
  <dData1D:(new from dSpData1D) n=47955, refcount: 1>
refcount: 1>
new_DM -- step:     6
Re-using DM from previous geometries...
Number of DMs in history: 1
 DM extrapolation coefficients: 
1   1.00000
New DM after history re-use:
<dSpData2D:SpM extrapolated using coords
  <sparsity:sparsity for geom step 5
    nrows_g=229 nrows=229 sparsity=.9145 nnzs=47955, refcount: 9>
  <dData2D:(temp array for extrapolation) n=47955 m=1, refcount: 1>
refcount: 1>
No. of atoms with KB's overlaping orbs in proc 0. Max # of overlaps:      25     178

InitMesh: MESH = 180 x 192 x 144 = 4976640
InitMesh: Mesh cutoff (required, used) =   300.000   301.652 Ry
New grid distribution [1]: sub = 2

        iscf     Eharris(eV)        E_KS(eV)     FreeEng(eV)     dDmax    Ef(eV) dHmax(eV)
   scf:    1    -2837.369441    -2837.464543    -2837.464543  0.220562 -3.141739  2.949644
   scf:    2    -2833.673924    -2836.507304    -2836.507304  0.199211 -2.885026  5.972853
   scf:    3    -2838.189957    -2837.772696    -2837.772696  0.119313 -3.811686  0.260936
   scf:    4    -2837.777670    -2837.775476    -2837.775476  0.005394 -3.821609  0.171829
   scf:    5    -2837.777101    -2837.776441    -2837.776441  0.004682 -3.856542  0.046147
   scf:    6    -2837.776535    -2837.776497    -2837.776497  0.001336 -3.874133  0.013855
   scf:    7    -2837.776512    -2837.776505    -2837.776505  0.000378 -3.878398  0.005953
   scf:    8    -2837.776511    -2837.776508    -2837.776508  0.000217 -3.879318  0.004182
   scf:    9    -2837.776510    -2837.776509    -2837.776509  0.000145 -3.879267  0.001985
   scf:   10    -2837.776510    -2837.776509    -2837.776509  0.000082 -3.879083  0.000669

SCF Convergence by DM+H criterion
max |DM_out - DM_in|         :     0.0000822947
max |H_out - H_in|      (eV) :     0.0006685741
SCF cycle converged after 10 iterations

Using DM_out to compute the final energy and forces
No. of atoms with KB's overlaping orbs in proc 0. Max # of overlaps:      25     178

siesta: E_KS(eV) =            -2837.7765

siesta: Atomic forces (eV/Ang):
----------------------------------------
   Tot   -0.001139   -0.013151   -0.001191
----------------------------------------
   Max    4.124102
   Res    1.228902    sqrt( Sum f_i^2 / 3N )
----------------------------------------
   Max    4.124102    constrained

Stress tensor Voigt[x,y,z,yz,xz,xy] (kbar):       -1.42        2.96        0.35       -0.07       -0.18        1.41
(Free)E + p*V (eV/cell)    -2839.3818
Target enthalpy (eV/cell)    -2837.7765

                     ====================================
                        Begin CG opt. move =      6
                     ====================================

outcell: Unit cell vectors (Ang):
       16.518939    0.000000    0.000000
        0.000000   18.378032    0.000000
        0.000000    0.000000   13.391718

outcell: Cell vector modules (Ang)   :   16.518939   18.378032   13.391718
outcell: Cell angles (23,13,12) (deg):     90.0000     90.0000     90.0000
outcell: Cell volume (Ang**3)        :   4065.5326
<dSpData1D:S at geom step 6
  <sparsity:sparsity for geom step 6
    nrows_g=229 nrows=229 sparsity=.9159 nnzs=48033, refcount: 7>
  <dData1D:(new from dSpData1D) n=48033, refcount: 1>
refcount: 1>
new_DM -- step:     7
Re-using DM from previous geometries...
Number of DMs in history: 1
 DM extrapolation coefficients: 
1   1.00000
New DM after history re-use:
<dSpData2D:SpM extrapolated using coords
  <sparsity:sparsity for geom step 6
    nrows_g=229 nrows=229 sparsity=.9159 nnzs=48033, refcount: 9>
  <dData2D:(temp array for extrapolation) n=48033 m=1, refcount: 1>
refcount: 1>
No. of atoms with KB's overlaping orbs in proc 0. Max # of overlaps:      25     178

InitMesh: MESH = 180 x 192 x 144 = 4976640
InitMesh: Mesh cutoff (required, used) =   300.000   301.652 Ry
New grid distribution [1]: sub = 2

        iscf     Eharris(eV)        E_KS(eV)     FreeEng(eV)     dDmax    Ef(eV) dHmax(eV)
   scf:    1    -2837.567308    -2837.801313    -2837.801313  0.081756 -3.750153  1.380269
   scf:    2    -2836.991241    -2837.587460    -2837.587460  0.105058 -2.856683  3.069156
   scf:    3    -2837.932041    -2837.855268    -2837.855268  0.074902 -3.452652  0.141131
   scf:    4    -2837.855962    -2837.855646    -2837.855646  0.001548 -3.433139  0.073466
   scf:    5    -2837.855882    -2837.855785    -2837.855785  0.001754 -3.415041  0.012103
   scf:    6    -2837.855800    -2837.855793    -2837.855793  0.000655 -3.410097  0.004617
   scf:    7    -2837.855796    -2837.855795    -2837.855795  0.000369 -3.407855  0.002933
   scf:    8    -2837.855796    -2837.855795    -2837.855795  0.000114 -3.407611  0.001910
   scf:    9    -2837.855796    -2837.855796    -2837.855796  0.000091 -3.407587  0.000749

SCF Convergence by DM+H criterion
max |DM_out - DM_in|         :     0.0000912115
max |H_out - H_in|      (eV) :     0.0007487478
SCF cycle converged after 9 iterations

Using DM_out to compute the final energy and forces
No. of atoms with KB's overlaping orbs in proc 0. Max # of overlaps:      25     178

siesta: E_KS(eV) =            -2837.8558

siesta: Atomic forces (eV/Ang):
----------------------------------------
   Tot    0.001988   -0.007771   -0.000905
----------------------------------------
   Max    3.753291
   Res    1.066602    sqrt( Sum f_i^2 / 3N )
----------------------------------------
   Max    3.753291    constrained

Stress tensor Voigt[x,y,z,yz,xz,xy] (kbar):       -1.59        2.72       -0.04       -0.03       -0.18        1.08
(Free)E + p*V (eV/cell)    -2838.7846
Target enthalpy (eV/cell)    -2837.8558

cgvc: Finished line minimization    2.  Mean atomic displacement =    0.0631

                     ====================================
                        Begin CG opt. move =      7
                     ====================================

outcell: Unit cell vectors (Ang):
       16.518939    0.000000    0.000000
        0.000000   18.378032    0.000000
        0.000000    0.000000   13.391718

outcell: Cell vector modules (Ang)   :   16.518939   18.378032   13.391718
outcell: Cell angles (23,13,12) (deg):     90.0000     90.0000     90.0000
outcell: Cell volume (Ang**3)        :   4065.5326
<dSpData1D:S at geom step 7
  <sparsity:sparsity for geom step 7
    nrows_g=229 nrows=229 sparsity=.9123 nnzs=47841, refcount: 7>
  <dData1D:(new from dSpData1D) n=47841, refcount: 1>
refcount: 1>
new_DM -- step:     8
Re-using DM from previous geometries...
Number of DMs in history: 1
 DM extrapolation coefficients: 
1   1.00000
New DM after history re-use:
<dSpData2D:SpM extrapolated using coords
  <sparsity:sparsity for geom step 7
    nrows_g=229 nrows=229 sparsity=.9123 nnzs=47841, refcount: 9>
  <dData2D:(temp array for extrapolation) n=47841 m=1, refcount: 1>
refcount: 1>
No. of atoms with KB's overlaping orbs in proc 0. Max # of overlaps:      25     177

InitMesh: MESH = 180 x 192 x 144 = 4976640
InitMesh: Mesh cutoff (required, used) =   300.000   301.652 Ry
New grid distribution [1]: sub = 2

        iscf     Eharris(eV)        E_KS(eV)     FreeEng(eV)     dDmax    Ef(eV) dHmax(eV)
   scf:    1    -2837.496218    -2838.098585    -2838.098585  0.231541 -3.722283  2.115954
   scf:    2    -2833.464546    -2836.841056    -2836.841056  0.134275 -2.895848  4.858296
   scf:    3    -2838.769310    -2838.357761    -2838.357761  0.097857 -4.171691  0.226078
   scf:    4    -2838.361422    -2838.359746    -2838.359746  0.003543 -4.185271  0.137172
   scf:    5    -2838.361156    -2838.360563    -2838.360563  0.003835 -4.210455  0.028848
   scf:    6    -2838.360647    -2838.360610    -2838.360610  0.001247 -4.219507  0.010681
   scf:    7    -2838.360622    -2838.360617    -2838.360617  0.000797 -4.223979  0.004243
   scf:    8    -2838.360620    -2838.360618    -2838.360618  0.000278 -4.224758  0.003454
   scf:    9    -2838.360620    -2838.360619    -2838.360619  0.000191 -4.224954  0.001764
   scf:   10    -2838.360619    -2838.360619    -2838.360619  0.000061 -4.224850  0.000784

SCF Convergence by DM+H criterion
max |DM_out - DM_in|         :     0.0000608233
max |H_out - H_in|      (eV) :     0.0007837933
SCF cycle converged after 10 iterations

Using DM_out to compute the final energy and forces
No. of atoms with KB's overlaping orbs in proc 0. Max # of overlaps:      25     177

siesta: E_KS(eV) =            -2838.3606

siesta: Atomic forces (eV/Ang):
----------------------------------------
   Tot   -0.001348   -0.014285   -0.002284
----------------------------------------
   Max    4.147723
   Res    0.802282    sqrt( Sum f_i^2 / 3N )
----------------------------------------
   Max    4.147723    constrained

Stress tensor Voigt[x,y,z,yz,xz,xy] (kbar):        0.75        2.26        0.29       -0.03       -0.25        2.26
(Free)E + p*V (eV/cell)    -2841.1594
Target enthalpy (eV/cell)    -2838.3606

                     ====================================
                        Begin CG opt. move =      8
                     ====================================

outcell: Unit cell vectors (Ang):
       16.518939    0.000000    0.000000
        0.000000   18.378032    0.000000
        0.000000    0.000000   13.391718

outcell: Cell vector modules (Ang)   :   16.518939   18.378032   13.391718
outcell: Cell angles (23,13,12) (deg):     90.0000     90.0000     90.0000
outcell: Cell volume (Ang**3)        :   4065.5326
<dSpData1D:S at geom step 8
  <sparsity:sparsity for geom step 8
    nrows_g=229 nrows=229 sparsity=.9123 nnzs=47841, refcount: 7>
  <dData1D:(new from dSpData1D) n=47841, refcount: 1>
refcount: 1>
new_DM -- step:     9
Re-using DM from previous geometries...
Number of DMs in history: 1
 DM extrapolation coefficients: 
1   1.00000
New DM after history re-use:
<dSpData2D:SpM extrapolated using coords
  <sparsity:sparsity for geom step 8
    nrows_g=229 nrows=229 sparsity=.9123 nnzs=47841, refcount: 9>
  <dData2D:(temp array for extrapolation) n=47841 m=1, refcount: 1>
refcount: 1>
No. of atoms with KB's overlaping orbs in proc 0. Max # of overlaps:      25     177

InitMesh: MESH = 180 x 192 x 144 = 4976640
InitMesh: Mesh cutoff (required, used) =   300.000   301.652 Ry
New grid distribution [1]: sub = 2

        iscf     Eharris(eV)        E_KS(eV)     FreeEng(eV)     dDmax    Ef(eV) dHmax(eV)
   scf:    1    -2838.395051    -2838.374903    -2838.374903  0.041920 -4.162328  0.544253
   scf:    2    -2838.126552    -2838.307287    -2838.307287  0.037774 -3.805697  1.209996
   scf:    3    -2838.410081    -2838.388478    -2838.388478  0.026828 -4.048896  0.060356
   scf:    4    -2838.388655    -2838.388574    -2838.388574  0.000621 -4.041343  0.031698
   scf:    5    -2838.388639    -2838.388611    -2838.388611  0.000800 -4.034594  0.006322
   scf:    6    -2838.388616    -2838.388614    -2838.388614  0.000334 -4.032757  0.002454
   scf:    7    -2838.388615    -2838.388615    -2838.388615  0.000210 -4.031752  0.000940
   scf:    8    -2838.388615    -2838.388615    -2838.388615  0.000065 -4.031562  0.000765

SCF Convergence by DM+H criterion
max |DM_out - DM_in|         :     0.0000652312
max |H_out - H_in|      (eV) :     0.0007652257
SCF cycle converged after 8 iterations

Using DM_out to compute the final energy and forces
No. of atoms with KB's overlaping orbs in proc 0. Max # of overlaps:      25     177

siesta: E_KS(eV) =            -2838.3886

siesta: Atomic forces (eV/Ang):
----------------------------------------
   Tot    0.000030   -0.014751   -0.001887
----------------------------------------
   Max    2.528074
   Res    0.631189    sqrt( Sum f_i^2 / 3N )
----------------------------------------
   Max    2.528074    constrained

Stress tensor Voigt[x,y,z,yz,xz,xy] (kbar):        0.35        2.52        0.23       -0.02       -0.24        1.97
(Free)E + p*V (eV/cell)    -2841.0099
Target enthalpy (eV/cell)    -2838.3886

cgvc: Finished line minimization    3.  Mean atomic displacement =    0.0496

                     ====================================
                        Begin CG opt. move =      9
                     ====================================

outcell: Unit cell vectors (Ang):
       16.518939    0.000000    0.000000
        0.000000   18.378032    0.000000
        0.000000    0.000000   13.391718

outcell: Cell vector modules (Ang)   :   16.518939   18.378032   13.391718
outcell: Cell angles (23,13,12) (deg):     90.0000     90.0000     90.0000
outcell: Cell volume (Ang**3)        :   4065.5326
<dSpData1D:S at geom step 9
  <sparsity:sparsity for geom step 9
    nrows_g=229 nrows=229 sparsity=.9179 nnzs=48135, refcount: 7>
  <dData1D:(new from dSpData1D) n=48135, refcount: 1>
refcount: 1>
new_DM -- step:    10
Re-using DM from previous geometries...
Number of DMs in history: 1
 DM extrapolation coefficients: 
1   1.00000
New DM after history re-use:
<dSpData2D:SpM extrapolated using coords
  <sparsity:sparsity for geom step 9
    nrows_g=229 nrows=229 sparsity=.9179 nnzs=48135, refcount: 9>
  <dData2D:(temp array for extrapolation) n=48135 m=1, refcount: 1>
refcount: 1>
No. of atoms with KB's overlaping orbs in proc 0. Max # of overlaps:      25     184

InitMesh: MESH = 180 x 192 x 144 = 4976640
InitMesh: Mesh cutoff (required, used) =   300.000   301.652 Ry
New grid distribution [1]: sub = 2

        iscf     Eharris(eV)        E_KS(eV)     FreeEng(eV)     dDmax    Ef(eV) dHmax(eV)
   scf:    1    -2838.373306    -2838.560589    -2838.560589  0.128685 -3.984280  1.267000
   scf:    2    -2836.309460    -2837.951042    -2837.951042  0.089589 -4.006418  2.989607
   scf:    3    -2838.883099    -2838.688439    -2838.688439  0.062428 -3.945068  0.165569
   scf:    4    -2838.690643    -2838.689635    -2838.689635  0.001547 -3.927016  0.095463
   scf:    5    -2838.690450    -2838.690135    -2838.690135  0.001961 -3.905099  0.015438
   scf:    6    -2838.690166    -2838.690152    -2838.690152  0.000409 -3.902005  0.008149
   scf:    7    -2838.690160    -2838.690157    -2838.690157  0.000441 -3.899641  0.002407
   scf:    8    -2838.690159    -2838.690158    -2838.690158  0.000131 -3.899504  0.001671
   scf:    9    -2838.690158    -2838.690158    -2838.690158  0.000132 -3.899529  0.000654
   scf:   10    -2838.690158    -2838.690158    -2838.690158  0.000040 -3.899599  0.000282

SCF Convergence by DM+H criterion
max |DM_out - DM_in|         :     0.0000395234
max |H_out - H_in|      (eV) :     0.0002821583
SCF cycle converged after 10 iterations

Using DM_out to compute the final energy and forces
No. of atoms with KB's overlaping orbs in proc 0. Max # of overlaps:      25     184

siesta: E_KS(eV) =            -2838.6902

siesta: Atomic forces (eV/Ang):
----------------------------------------
   Tot    0.001251    0.006141   -0.002255
----------------------------------------
   Max    1.926935
   Res    0.525200    sqrt( Sum f_i^2 / 3N )
----------------------------------------
   Max    1.926935    constrained

Stress tensor Voigt[x,y,z,yz,xz,xy] (kbar):        0.43        2.48       -0.12       -0.08       -0.21        0.95
(Free)E + p*V (eV/cell)    -2841.0529
Target enthalpy (eV/cell)    -2838.6902

                     ====================================
                        Begin CG opt. move =     10
                     ====================================

outcell: Unit cell vectors (Ang):
       16.518939    0.000000    0.000000
        0.000000   18.378032    0.000000
        0.000000    0.000000   13.391718

outcell: Cell vector modules (Ang)   :   16.518939   18.378032   13.391718
outcell: Cell angles (23,13,12) (deg):     90.0000     90.0000     90.0000
outcell: Cell volume (Ang**3)        :   4065.5326
<dSpData1D:S at geom step 10
  <sparsity:sparsity for geom step 10
    nrows_g=229 nrows=229 sparsity=.9165 nnzs=48063, refcount: 7>
  <dData1D:(new from dSpData1D) n=48063, refcount: 1>
refcount: 1>
new_DM -- step:    11
Re-using DM from previous geometries...
Number of DMs in history: 1
 DM extrapolation coefficients: 
1   1.00000
New DM after history re-use:
<dSpData2D:SpM extrapolated using coords
  <sparsity:sparsity for geom step 10
    nrows_g=229 nrows=229 sparsity=.9165 nnzs=48063, refcount: 9>
  <dData2D:(temp array for extrapolation) n=48063 m=1, refcount: 1>
refcount: 1>
No. of atoms with KB's overlaping orbs in proc 0. Max # of overlaps:      25     184

InitMesh: MESH = 180 x 192 x 144 = 4976640
InitMesh: Mesh cutoff (required, used) =   300.000   301.652 Ry
New grid distribution [1]: sub = 2

        iscf     Eharris(eV)        E_KS(eV)     FreeEng(eV)     dDmax    Ef(eV) dHmax(eV)
   scf:    1    -2838.689059    -2838.694413    -2838.694413  0.015750 -3.910136  0.167648
   scf:    2    -2838.657708    -2838.684507    -2838.684507  0.012048 -3.904971  0.393717
   scf:    3    -2838.699753    -2838.696528    -2838.696528  0.008535 -3.914147  0.021671
   scf:    4    -2838.696563    -2838.696547    -2838.696547  0.000195 -3.916479  0.012651
   scf:    5    -2838.696561    -2838.696556    -2838.696556  0.000262 -3.919439  0.002011
   scf:    6    -2838.696556    -2838.696556    -2838.696556  0.000054 -3.919870  0.001064
   scf:    7    -2838.696556    -2838.696556    -2838.696556  0.000059 -3.920187  0.000326

SCF Convergence by DM+H criterion
max |DM_out - DM_in|         :     0.0000585384
max |H_out - H_in|      (eV) :     0.0003260814
SCF cycle converged after 7 iterations

Using DM_out to compute the final energy and forces
No. of atoms with KB's overlaping orbs in proc 0. Max # of overlaps:      25     184

siesta: E_KS(eV) =            -2838.6966

siesta: Atomic forces (eV/Ang):
----------------------------------------
   Tot    0.000816    0.004391   -0.001889
----------------------------------------
   Max    1.586501
   Res    0.441625    sqrt( Sum f_i^2 / 3N )
----------------------------------------
   Max    1.586501    constrained

Stress tensor Voigt[x,y,z,yz,xz,xy] (kbar):        0.45        2.53       -0.07       -0.07       -0.22        1.09
(Free)E + p*V (eV/cell)    -2841.1590
Target enthalpy (eV/cell)    -2838.6966

cgvc: Finished line minimization    4.  Mean atomic displacement =    0.0432

                     ====================================
                        Begin CG opt. move =     11
                     ====================================

outcell: Unit cell vectors (Ang):
       16.518939    0.000000    0.000000
        0.000000   18.378032    0.000000
        0.000000    0.000000   13.391718

outcell: Cell vector modules (Ang)   :   16.518939   18.378032   13.391718
outcell: Cell angles (23,13,12) (deg):     90.0000     90.0000     90.0000
outcell: Cell volume (Ang**3)        :   4065.5326
<dSpData1D:S at geom step 11
  <sparsity:sparsity for geom step 11
    nrows_g=229 nrows=229 sparsity=.9175 nnzs=48113, refcount: 7>
  <dData1D:(new from dSpData1D) n=48113, refcount: 1>
refcount: 1>
new_DM -- step:    12
Re-using DM from previous geometries...
Number of DMs in history: 1
 DM extrapolation coefficients: 
1   1.00000
New DM after history re-use:
<dSpData2D:SpM extrapolated using coords
  <sparsity:sparsity for geom step 11
    nrows_g=229 nrows=229 sparsity=.9175 nnzs=48113, refcount: 9>
  <dData2D:(temp array for extrapolation) n=48113 m=1, refcount: 1>
refcount: 1>
No. of atoms with KB's overlaping orbs in proc 0. Max # of overlaps:      25     184

InitMesh: MESH = 180 x 192 x 144 = 4976640
InitMesh: Mesh cutoff (required, used) =   300.000   301.652 Ry
New grid distribution [1]: sub = 2

        iscf     Eharris(eV)        E_KS(eV)     FreeEng(eV)     dDmax    Ef(eV) dHmax(eV)
   scf:    1    -2838.898233    -2838.858703    -2838.858703  0.063070 -4.030074  0.848506
   scf:    2    -2838.159361    -2838.664415    -2838.664415  0.036855 -3.894827  2.200694
   scf:    3    -2838.948791    -2838.891845    -2838.891845  0.027540 -3.956691  0.093003
   scf:    4    -2838.892351    -2838.892120    -2838.892120  0.001002 -3.941681  0.056155
   scf:    5    -2838.892326    -2838.892235    -2838.892235  0.001080 -3.928197  0.017719
   scf:    6    -2838.892260    -2838.892248    -2838.892248  0.000365 -3.925219  0.007316
   scf:    7    -2838.892256    -2838.892253    -2838.892253  0.000348 -3.922883  0.000960
   scf:    8    -2838.892253    -2838.892253    -2838.892253  0.000062 -3.922745  0.000737

SCF Convergence by DM+H criterion
max |DM_out - DM_in|         :     0.0000623634
max |H_out - H_in|      (eV) :     0.0007370191
SCF cycle converged after 8 iterations

Using DM_out to compute the final energy and forces
No. of atoms with KB's overlaping orbs in proc 0. Max # of overlaps:      25     184

siesta: E_KS(eV) =            -2838.8923

siesta: Atomic forces (eV/Ang):
----------------------------------------
   Tot    0.001585    0.000079   -0.002453
----------------------------------------
   Max    1.478162
   Res    0.375563    sqrt( Sum f_i^2 / 3N )
----------------------------------------
   Max    1.478162    constrained

Stress tensor Voigt[x,y,z,yz,xz,xy] (kbar):        0.34        2.11       -0.24       -0.15       -0.17        1.19
(Free)E + p*V (eV/cell)    -2840.7610
Target enthalpy (eV/cell)    -2838.8923

                     ====================================
                        Begin CG opt. move =     12
                     ====================================

outcell: Unit cell vectors (Ang):
       16.518939    0.000000    0.000000
        0.000000   18.378032    0.000000
        0.000000    0.000000   13.391718

outcell: Cell vector modules (Ang)   :   16.518939   18.378032   13.391718
outcell: Cell angles (23,13,12) (deg):     90.0000     90.0000     90.0000
outcell: Cell volume (Ang**3)        :   4065.5326
<dSpData1D:S at geom step 12
  <sparsity:sparsity for geom step 12
    nrows_g=229 nrows=229 sparsity=.9214 nnzs=48321, refcount: 7>
  <dData1D:(new from dSpData1D) n=48321, refcount: 1>
refcount: 1>
new_DM -- step:    13
Re-using DM from previous geometries...
Number of DMs in history: 1
 DM extrapolation coefficients: 
1   1.00000
New DM after history re-use:
<dSpData2D:SpM extrapolated using coords
  <sparsity:sparsity for geom step 12
    nrows_g=229 nrows=229 sparsity=.9214 nnzs=48321, refcount: 9>
  <dData2D:(temp array for extrapolation) n=48321 m=1, refcount: 1>
refcount: 1>
No. of atoms with KB's overlaping orbs in proc 0. Max # of overlaps:      25     188

InitMesh: MESH = 180 x 192 x 144 = 4976640
InitMesh: Mesh cutoff (required, used) =   300.000   301.652 Ry
New grid distribution [1]: sub = 2

        iscf     Eharris(eV)        E_KS(eV)     FreeEng(eV)     dDmax    Ef(eV) dHmax(eV)
   scf:    1    -2838.382906    -2838.515960    -2838.515960  0.082967 -4.174211  1.148859
   scf:    2    -2837.323586    -2838.188618    -2838.188618  0.060514 -3.775826  2.964319
   scf:    3    -2838.675930    -2838.578658    -2838.578658  0.045212 -4.003906  0.158100
   scf:    4    -2838.579955    -2838.579361    -2838.579361  0.001679 -3.978393  0.093270
   scf:    5    -2838.579882    -2838.579651    -2838.579651  0.001721 -3.956440  0.028763
   scf:    6    -2838.579717    -2838.579686    -2838.579686  0.000625 -3.951204  0.010685
   scf:    7    -2838.579703    -2838.579695    -2838.579695  0.000546 -3.947587  0.001653
   scf:    8    -2838.579696    -2838.579696    -2838.579696  0.000100 -3.947393  0.001242
   scf:    9    -2838.579696    -2838.579696    -2838.579696  0.000091 -3.947272  0.000659

SCF Convergence by DM+H criterion
max |DM_out - DM_in|         :     0.0000913181
max |H_out - H_in|      (eV) :     0.0006585547
SCF cycle converged after 9 iterations

Using DM_out to compute the final energy and forces
No. of atoms with KB's overlaping orbs in proc 0. Max # of overlaps:      25     188

siesta: E_KS(eV) =            -2838.5797

siesta: Atomic forces (eV/Ang):
----------------------------------------
   Tot   -0.007250   -0.000440   -0.003438
----------------------------------------
   Max    3.823818
   Res    1.088347    sqrt( Sum f_i^2 / 3N )
----------------------------------------
   Max    3.823818    constrained

Stress tensor Voigt[x,y,z,yz,xz,xy] (kbar):        0.03        1.16       -0.53       -0.29       -0.09        1.36
(Free)E + p*V (eV/cell)    -2839.1366
Target enthalpy (eV/cell)    -2838.5797

                     ====================================
                        Begin CG opt. move =     13
                     ====================================

outcell: Unit cell vectors (Ang):
       16.518939    0.000000    0.000000
        0.000000   18.378032    0.000000
        0.000000    0.000000   13.391718

outcell: Cell vector modules (Ang)   :   16.518939   18.378032   13.391718
outcell: Cell angles (23,13,12) (deg):     90.0000     90.0000     90.0000
outcell: Cell volume (Ang**3)        :   4065.5326
<dSpData1D:S at geom step 13
  <sparsity:sparsity for geom step 13
    nrows_g=229 nrows=229 sparsity=.9172 nnzs=48097, refcount: 7>
  <dData1D:(new from dSpData1D) n=48097, refcount: 1>
refcount: 1>
new_DM -- step:    14
Re-using DM from previous geometries...
Number of DMs in history: 1
 DM extrapolation coefficients: 
1   1.00000
New DM after history re-use:
<dSpData2D:SpM extrapolated using coords
  <sparsity:sparsity for geom step 13
    nrows_g=229 nrows=229 sparsity=.9172 nnzs=48097, refcount: 9>
  <dData2D:(temp array for extrapolation) n=48097 m=1, refcount: 1>
refcount: 1>
No. of atoms with KB's overlaping orbs in proc 0. Max # of overlaps:      25     184

InitMesh: MESH = 180 x 192 x 144 = 4976640
InitMesh: Mesh cutoff (required, used) =   300.000   301.652 Ry
New grid distribution [1]: sub = 2

        iscf     Eharris(eV)        E_KS(eV)     FreeEng(eV)     dDmax    Ef(eV) dHmax(eV)
   scf:    1    -2838.702654    -2838.839498    -2838.839498  0.075069 -3.739466  1.071463
   scf:    2    -2837.801402    -2838.555482    -2838.555482  0.049099 -4.040454  2.713630
   scf:    3    -2838.982559    -2838.894737    -2838.894737  0.036041 -3.874382  0.139152
   scf:    4    -2838.895748    -2838.895280    -2838.895280  0.001485 -3.895568  0.084083
   scf:    5    -2838.895728    -2838.895529    -2838.895529  0.001671 -3.915912  0.024617
   scf:    6    -2838.895579    -2838.895556    -2838.895556  0.000556 -3.920461  0.009100
   scf:    7    -2838.895569    -2838.895563    -2838.895563  0.000482 -3.923619  0.001477
   scf:    8    -2838.895564    -2838.895563    -2838.895563  0.000082 -3.923749  0.001093
   scf:    9    -2838.895564    -2838.895563    -2838.895563  0.000088 -3.923856  0.000521

SCF Convergence by DM+H criterion
max |DM_out - DM_in|         :     0.0000878574
max |H_out - H_in|      (eV) :     0.0005205307
SCF cycle converged after 9 iterations

Using DM_out to compute the final energy and forces
No. of atoms with KB's overlaping orbs in proc 0. Max # of overlaps:      25     184

siesta: E_KS(eV) =            -2838.8956

siesta: Atomic forces (eV/Ang):
----------------------------------------
   Tot    0.000401   -0.004913   -0.002397
----------------------------------------
   Max    1.469887
   Res    0.426133    sqrt( Sum f_i^2 / 3N )
----------------------------------------
   Max    1.469887    constrained

Stress tensor Voigt[x,y,z,yz,xz,xy] (kbar):        0.32        2.04       -0.27       -0.16       -0.16        1.21
(Free)E + p*V (eV/cell)    -2840.6612
Target enthalpy (eV/cell)    -2838.8956

cgvc: Finished line minimization    5.  Mean atomic displacement =    0.0497

                     ====================================
                        Begin CG opt. move =     14
                     ====================================

outcell: Unit cell vectors (Ang):
       16.518939    0.000000    0.000000
        0.000000   18.378032    0.000000
        0.000000    0.000000   13.391718

outcell: Cell vector modules (Ang)   :   16.518939   18.378032   13.391718
outcell: Cell angles (23,13,12) (deg):     90.0000     90.0000     90.0000
outcell: Cell volume (Ang**3)        :   4065.5326
<dSpData1D:S at geom step 14
  <sparsity:sparsity for geom step 14
    nrows_g=229 nrows=229 sparsity=.9211 nnzs=48305, refcount: 7>
  <dData1D:(new from dSpData1D) n=48305, refcount: 1>
refcount: 1>
new_DM -- step:    15
Re-using DM from previous geometries...
Number of DMs in history: 1
 DM extrapolation coefficients: 
1   1.00000
New DM after history re-use:
<dSpData2D:SpM extrapolated using coords
  <sparsity:sparsity for geom step 14
    nrows_g=229 nrows=229 sparsity=.9211 nnzs=48305, refcount: 9>
  <dData2D:(temp array for extrapolation) n=48305 m=1, refcount: 1>
refcount: 1>
No. of atoms with KB's overlaping orbs in proc 0. Max # of overlaps:      25     188

InitMesh: MESH = 180 x 192 x 144 = 4976640
InitMesh: Mesh cutoff (required, used) =   300.000   301.652 Ry
New grid distribution [1]: sub = 2

        iscf     Eharris(eV)        E_KS(eV)     FreeEng(eV)     dDmax    Ef(eV) dHmax(eV)
   scf:    1    -2838.586725    -2839.045300    -2839.045300  0.063461 -4.010281  0.808686
   scf:    2    -2838.571900    -2838.916349    -2838.916349  0.044117 -2.338930  1.645610
   scf:    3    -2839.111889    -2839.071048    -2839.071048  0.032350 -4.191138  0.063711
   scf:    4    -2839.071485    -2839.071280    -2839.071280  0.001184 -4.204362  0.034012
   scf:    5    -2839.071492    -2839.071400    -2839.071400  0.001792 -4.218054  0.005746
   scf:    6    -2839.071413    -2839.071407    -2839.071407  0.000586 -4.219602  0.002946
   scf:    7    -2839.071410    -2839.071409    -2839.071409  0.000422 -4.220366  0.001287
   scf:    8    -2839.071409    -2839.071409    -2839.071409  0.000122 -4.220425  0.000847
   scf:    9    -2839.071409    -2839.071409    -2839.071409  0.000097 -4.220421  0.000379

SCF Convergence by DM+H criterion
max |DM_out - DM_in|         :     0.0000965621
max |H_out - H_in|      (eV) :     0.0003793972
SCF cycle converged after 9 iterations

Using DM_out to compute the final energy and forces
No. of atoms with KB's overlaping orbs in proc 0. Max # of overlaps:      25     188

siesta: E_KS(eV) =            -2839.0714

siesta: Atomic forces (eV/Ang):
----------------------------------------
   Tot   -0.001069   -0.013748   -0.002717
----------------------------------------
   Max    0.734571
   Res    0.255269    sqrt( Sum f_i^2 / 3N )
----------------------------------------
   Max    0.734571    constrained

Stress tensor Voigt[x,y,z,yz,xz,xy] (kbar):        0.63        0.98       -0.25       -0.14       -0.08        0.42
(Free)E + p*V (eV/cell)    -2840.2148
Target enthalpy (eV/cell)    -2839.0714

                     ====================================
                        Begin CG opt. move =     15
                     ====================================

outcell: Unit cell vectors (Ang):
       16.518939    0.000000    0.000000
        0.000000   18.378032    0.000000
        0.000000    0.000000   13.391718

outcell: Cell vector modules (Ang)   :   16.518939   18.378032   13.391718
[...]
        0.000000   18.378032    0.000000
        0.000000    0.000000   13.391718

outcell: Cell vector modules (Ang)   :   16.518939   18.378032   13.391718
outcell: Cell angles (23,13,12) (deg):     90.0000     90.0000     90.0000
outcell: Cell volume (Ang**3)        :   4065.5326
<dSpData1D:S at geom step 197
  <sparsity:sparsity for geom step 197
    nrows_g=229 nrows=229 sparsity=.9330 nnzs=48929, refcount: 7>
  <dData1D:(new from dSpData1D) n=48929, refcount: 1>
refcount: 1>
new_DM -- step:   198
Re-using DM from previous geometries...
Number of DMs in history: 1
 DM extrapolation coefficients: 
1   1.00000
New DM after history re-use:
<dSpData2D:SpM extrapolated using coords
  <sparsity:sparsity for geom step 197
    nrows_g=229 nrows=229 sparsity=.9330 nnzs=48929, refcount: 9>
  <dData2D:(temp array for extrapolation) n=48929 m=1, refcount: 1>
refcount: 1>
No. of atoms with KB's overlaping orbs in proc 0. Max # of overlaps:      25     195

InitMesh: MESH = 180 x 192 x 144 = 4976640
InitMesh: Mesh cutoff (required, used) =   300.000   301.652 Ry
New grid distribution [1]: sub = 2

        iscf     Eharris(eV)        E_KS(eV)     FreeEng(eV)     dDmax    Ef(eV) dHmax(eV)
   scf:    1    -2839.372012    -2839.375991    -2839.375991  0.008084 -4.230962  0.022252
   scf:    2    -2839.375364    -2839.375833    -2839.375833  0.001366 -4.247540  0.051167
   scf:    3    -2839.376100    -2839.376047    -2839.376047  0.000919 -4.236188  0.004367
   scf:    4    -2839.376051    -2839.376049    -2839.376049  0.000127 -4.236494  0.002444
   scf:    5    -2839.376051    -2839.376050    -2839.376050  0.000173 -4.236807  0.000910
   scf:    6    -2839.376050    -2839.376050    -2839.376050  0.000034 -4.236839  0.000561

SCF Convergence by DM+H criterion
max |DM_out - DM_in|         :     0.0000338182
max |H_out - H_in|      (eV) :     0.0005605556
SCF cycle converged after 6 iterations

Using DM_out to compute the final energy and forces
No. of atoms with KB's overlaping orbs in proc 0. Max # of overlaps:      25     195

siesta: E_KS(eV) =            -2839.3761

siesta: Atomic forces (eV/Ang):
----------------------------------------
   Tot   -0.004260    0.006915   -0.010532
----------------------------------------
   Max    0.045945
   Res    0.012444    sqrt( Sum f_i^2 / 3N )
----------------------------------------
   Max    0.045945    constrained

Stress tensor Voigt[x,y,z,yz,xz,xy] (kbar):       -0.01       -0.03       -0.00       -0.01        0.02       -0.02
(Free)E + p*V (eV/cell)    -2839.3375
Target enthalpy (eV/cell)    -2839.3761

                     ====================================
                        Begin CG opt. move =    198
                     ====================================

outcell: Unit cell vectors (Ang):
       16.518939    0.000000    0.000000
        0.000000   18.378032    0.000000
        0.000000    0.000000   13.391718

outcell: Cell vector modules (Ang)   :   16.518939   18.378032   13.391718
outcell: Cell angles (23,13,12) (deg):     90.0000     90.0000     90.0000
outcell: Cell volume (Ang**3)        :   4065.5326
<dSpData1D:S at geom step 198
  <sparsity:sparsity for geom step 198
    nrows_g=229 nrows=229 sparsity=.9330 nnzs=48929, refcount: 7>
  <dData1D:(new from dSpData1D) n=48929, refcount: 1>
refcount: 1>
new_DM -- step:   199
Re-using DM from previous geometries...
Number of DMs in history: 1
 DM extrapolation coefficients: 
1   1.00000
New DM after history re-use:
<dSpData2D:SpM extrapolated using coords
  <sparsity:sparsity for geom step 198
    nrows_g=229 nrows=229 sparsity=.9330 nnzs=48929, refcount: 9>
  <dData2D:(temp array for extrapolation) n=48929 m=1, refcount: 1>
refcount: 1>
No. of atoms with KB's overlaping orbs in proc 0. Max # of overlaps:      25     195

InitMesh: MESH = 180 x 192 x 144 = 4976640
InitMesh: Mesh cutoff (required, used) =   300.000   301.652 Ry
New grid distribution [1]: sub = 2

        iscf     Eharris(eV)        E_KS(eV)     FreeEng(eV)     dDmax    Ef(eV) dHmax(eV)
   scf:    1    -2839.376410    -2839.376052    -2839.376052  0.000804 -4.236808  0.002162
   scf:    2    -2839.376046    -2839.376050    -2839.376050  0.000138 -4.235212  0.005256
   scf:    3    -2839.376053    -2839.376053    -2839.376053  0.000093 -4.236309  0.000440

SCF Convergence by DM+H criterion
max |DM_out - DM_in|         :     0.0000926814
max |H_out - H_in|      (eV) :     0.0004403181
SCF cycle converged after 3 iterations

Using DM_out to compute the final energy and forces
No. of atoms with KB's overlaping orbs in proc 0. Max # of overlaps:      25     195

siesta: E_KS(eV) =            -2839.3761

siesta: Atomic forces (eV/Ang):
----------------------------------------
   Tot   -0.004358    0.007121   -0.010536
----------------------------------------
   Max    0.040653
   Res    0.011147    sqrt( Sum f_i^2 / 3N )
----------------------------------------
   Max    0.040653    constrained

Stress tensor Voigt[x,y,z,yz,xz,xy] (kbar):       -0.01       -0.04       -0.01       -0.01        0.02       -0.01
(Free)E + p*V (eV/cell)    -2839.3372
Target enthalpy (eV/cell)    -2839.3761

cgvc: Finished line minimization   80.  Mean atomic displacement =    0.0064

                     ====================================
                        Begin CG opt. move =    199
                     ====================================

outcell: Unit cell vectors (Ang):
       16.518939    0.000000    0.000000
        0.000000   18.378032    0.000000
        0.000000    0.000000   13.391718

outcell: Cell vector modules (Ang)   :   16.518939   18.378032   13.391718
outcell: Cell angles (23,13,12) (deg):     90.0000     90.0000     90.0000
outcell: Cell volume (Ang**3)        :   4065.5326
<dSpData1D:S at geom step 199
  <sparsity:sparsity for geom step 199
    nrows_g=229 nrows=229 sparsity=.9331 nnzs=48933, refcount: 7>
  <dData1D:(new from dSpData1D) n=48933, refcount: 1>
refcount: 1>
new_DM -- step:   200
Re-using DM from previous geometries...
Number of DMs in history: 1
 DM extrapolation coefficients: 
1   1.00000
New DM after history re-use:
<dSpData2D:SpM extrapolated using coords
  <sparsity:sparsity for geom step 199
    nrows_g=229 nrows=229 sparsity=.9331 nnzs=48933, refcount: 9>
  <dData2D:(temp array for extrapolation) n=48933 m=1, refcount: 1>
refcount: 1>
No. of atoms with KB's overlaping orbs in proc 0. Max # of overlaps:      25     195

InitMesh: MESH = 180 x 192 x 144 = 4976640
InitMesh: Mesh cutoff (required, used) =   300.000   301.652 Ry
New grid distribution [1]: sub = 2

        iscf     Eharris(eV)        E_KS(eV)     FreeEng(eV)     dDmax    Ef(eV) dHmax(eV)
   scf:    1    -2839.371857    -2839.376058    -2839.376058  0.007109 -4.251021  0.028390
   scf:    2    -2839.374799    -2839.375722    -2839.375722  0.001623 -4.248955  0.080402
   scf:    3    -2839.376244    -2839.376138    -2839.376138  0.001101 -4.250657  0.004029
   scf:    4    -2839.376141    -2839.376140    -2839.376140  0.000111 -4.250728  0.002364
   scf:    5    -2839.376142    -2839.376141    -2839.376141  0.000163 -4.250816  0.000683
   scf:    6    -2839.376141    -2839.376141    -2839.376141  0.000031 -4.250830  0.000434

SCF Convergence by DM+H criterion
max |DM_out - DM_in|         :     0.0000311046
max |H_out - H_in|      (eV) :     0.0004339407
SCF cycle converged after 6 iterations

Using DM_out to compute the final energy and forces
No. of atoms with KB's overlaping orbs in proc 0. Max # of overlaps:      25     195

siesta: E_KS(eV) =            -2839.3761

siesta: Atomic forces (eV/Ang):
----------------------------------------
   Tot   -0.003705    0.005711   -0.010454
----------------------------------------
   Max    0.047535
   Res    0.015693    sqrt( Sum f_i^2 / 3N )
----------------------------------------
   Max    0.047535    constrained

Stress tensor Voigt[x,y,z,yz,xz,xy] (kbar):       -0.03       -0.03        0.00       -0.01        0.02       -0.00
(Free)E + p*V (eV/cell)    -2839.3300
Target enthalpy (eV/cell)    -2839.3761

                     ====================================
                        Begin CG opt. move =    200
                     ====================================

outcell: Unit cell vectors (Ang):
       16.518939    0.000000    0.000000
        0.000000   18.378032    0.000000
        0.000000    0.000000   13.391718

outcell: Cell vector modules (Ang)   :   16.518939   18.378032   13.391718
outcell: Cell angles (23,13,12) (deg):     90.0000     90.0000     90.0000
outcell: Cell volume (Ang**3)        :   4065.5326
<dSpData1D:S at geom step 200
  <sparsity:sparsity for geom step 200
    nrows_g=229 nrows=229 sparsity=.9331 nnzs=48933, refcount: 7>
  <dData1D:(new from dSpData1D) n=48933, refcount: 1>
refcount: 1>
new_DM -- step:   201
Re-using DM from previous geometries...
Number of DMs in history: 1
 DM extrapolation coefficients: 
1   1.00000
New DM after history re-use:
<dSpData2D:SpM extrapolated using coords
  <sparsity:sparsity for geom step 200
    nrows_g=229 nrows=229 sparsity=.9331 nnzs=48933, refcount: 9>
  <dData2D:(temp array for extrapolation) n=48933 m=1, refcount: 1>
refcount: 1>
No. of atoms with KB's overlaping orbs in proc 0. Max # of overlaps:      25     195

InitMesh: MESH = 180 x 192 x 144 = 4976640
InitMesh: Mesh cutoff (required, used) =   300.000   301.652 Ry
New grid distribution [1]: sub = 2

        iscf     Eharris(eV)        E_KS(eV)     FreeEng(eV)     dDmax    Ef(eV) dHmax(eV)
   scf:    1    -2839.377421    -2839.376161    -2839.376161  0.002325 -4.245927  0.009254
   scf:    2    -2839.376026    -2839.376125    -2839.376125  0.000535 -4.246728  0.026288
   scf:    3    -2839.376181    -2839.376170    -2839.376170  0.000363 -4.246095  0.001298
   scf:    4    -2839.376170    -2839.376170    -2839.376170  0.000036 -4.246078  0.000763

SCF Convergence by DM+H criterion
max |DM_out - DM_in|         :     0.0000359859
max |H_out - H_in|      (eV) :     0.0007631839
SCF cycle converged after 4 iterations

Using DM_out to compute the final energy and forces
No. of atoms with KB's overlaping orbs in proc 0. Max # of overlaps:      25     195

siesta: E_KS(eV) =            -2839.3762

siesta: Atomic forces (eV/Ang):
----------------------------------------
   Tot   -0.003958    0.006167   -0.010535
----------------------------------------
   Max    0.028206
   Res    0.009966    sqrt( Sum f_i^2 / 3N )
----------------------------------------
   Max    0.028206    constrained

Stress tensor Voigt[x,y,z,yz,xz,xy] (kbar):       -0.02       -0.03        0.00       -0.01        0.02       -0.01
(Free)E + p*V (eV/cell)    -2839.3323
Target enthalpy (eV/cell)    -2839.3762

cgvc: Finished line minimization   81.  Mean atomic displacement =    0.0043

outcoor: Final (unrelaxed) atomic coordinates (Ang):        
   -1.13949627    1.71574693   -0.07658739   1       1  C
    0.10106781    2.37218952   -0.01894293   1       2  C
    1.13542150    1.43727417    0.06677628   2       3  N
    1.22545113   -1.12147144    0.11525400   1       4  C
    0.39612156   -2.26937198    0.08159977   1       5  C
   -1.03265931   -2.14474905    0.00293508   1       6  C
   -1.66212004   -0.87875112   -0.04448174   1       7  C
   -0.84233551    0.29029343   -0.01649838   1       8  C
    0.59388488    0.14925668    0.06681293   1       9  C
   -2.50659858    2.36691597   -0.14625782   1      10  C
    0.32020920    3.46360079   -0.04813874   3      11  H
    2.13592331    1.66634023    0.12791046   3      12  H
   -2.77531082   -0.81852208   -0.10489244   3      13  H
   -1.85292136   -3.26477049   -0.03383607   4      14  O
    0.85498810   -3.29003663    0.11102374   3      15  H
    2.33687011   -1.22622518    0.17249760   3      16  H
   -1.28417400   -4.06293716    0.02842641   3      17  H
   -3.16668370    2.54277167    1.24618401   1      18  C
   -2.33727305    3.43664480    2.08028448   2      19  N
   -1.40820177    2.98496707    2.21673329   3      20  H
   -2.75358818    3.52731648    3.02758130   3      21  H
   -4.17301385    3.02858378    1.10512716   3      22  H
   -3.34844013    1.51951048    1.70108456   3      23  H
   -2.41847676    3.38186831   -0.62415417   3      24  H
   -3.18914216    1.74945987   -0.79566296   3      25  H

coxmol: Writing XMOL coordinates into file optimization.xyz                                                                                                                                                                                                                    

siesta: Program's energy decomposition (eV):
siesta: Ebs     =      -866.722025
siesta: Eions   =      4751.384357
siesta: Ena     =      1227.482563
siesta: Ekin    =      1944.424194
siesta: Enl     =      -202.111203
siesta: Eso     =         0.000000
siesta: Edftu   =         0.000000
siesta: DEna    =      -100.112339
siesta: DUscf   =         9.934426
siesta: DUext   =         0.000000
siesta: Ex      =      -889.964770
siesta: Ec      =       -77.644684
siesta: Exc     =      -967.609454
siesta: EbV     =         0.000000
siesta: eta*DQ  =         0.000000
siesta: Emadel  =         0.000000
siesta: Emeta   =         0.000000
siesta: Emolmec =         0.000000
siesta: Ekinion =         0.000000
siesta: Eharris =     -2839.376170
siesta: Etot    =     -2839.376170
siesta: FreeEng =     -2839.376170

siesta: Final energy (eV):
siesta:  Band Struct. =    -866.722025
siesta:       Kinetic =    1944.424194
siesta:       Hartree =    7107.541787
siesta:         Edftu =       0.000000
siesta:       Eso     =       0.000000
siesta:    Ext. field =       0.000000
siesta:         Exch. =    -889.964770
siesta:         Corr. =     -77.644684
siesta:     Bulk bias =       0.000000
siesta:   Exch.-corr. =    -967.609454
siesta:  Ion-electron =  -15941.904759
siesta:       Ion-ion =    5018.172062
siesta:       Ekinion =       0.000000
siesta: D3 dispersion =       0.000000
siesta:         Total =   -2839.376170
siesta:         Fermi =      -4.246078

siesta: Atomic forces (eV/Ang):
siesta:      1   -0.020520    0.013336    0.001812
siesta:      2    0.006905   -0.006664    0.001677
siesta:      3    0.016979    0.010679   -0.004502
siesta:      4   -0.002342   -0.003852    0.005696
siesta:      5   -0.002512    0.017510    0.000765
siesta:      6    0.004192    0.013987   -0.001446
siesta:      7    0.028206    0.005112   -0.001474
siesta:      8   -0.011988   -0.015832   -0.007970
siesta:      9    0.003757   -0.007222   -0.003153
siesta:     10    0.009248    0.008472    0.013017
siesta:     11    0.010689    0.006260    0.002901
siesta:     12   -0.016866   -0.013103   -0.017781
siesta:     13   -0.020586   -0.010228   -0.005448
siesta:     14   -0.022543   -0.015353    0.004025
siesta:     15    0.009877    0.007040    0.006881
siesta:     16    0.001444   -0.000497    0.002962
siesta:     17    0.005456   -0.009601   -0.005857
siesta:     18    0.001171    0.006611   -0.016272
siesta:     19   -0.006187   -0.005866    0.000214
siesta:     20   -0.005257    0.003550    0.002017
siesta:     21   -0.007570    0.002314    0.005282
siesta:     22   -0.003950   -0.010189    0.016613
siesta:     23    0.005069    0.008316   -0.017251
siesta:     24    0.007973   -0.000712    0.006833
siesta:     25    0.005399    0.002099   -0.000076
siesta: ----------------------------------------
siesta:    Tot   -0.003958    0.006167   -0.010535

siesta: Stress tensor (static) (eV/Ang**3):
siesta:    -0.000014   -0.000004    0.000011
siesta:    -0.000004   -0.000019   -0.000004
siesta:     0.000011   -0.000004    0.000001

siesta: Cell volume =       4065.532604 Ang**3

siesta: Pressure (static):
siesta:                Solid            Molecule  Units
siesta:           0.00000012          0.00000006  Ry/Bohr**3
siesta:           0.00001079          0.00000508  eV/Ang**3
siesta:           0.01728310          0.00814220  kBar
(Free)E+ p_basis*V_orbitals  =       -2837.530552
(Free)Eharris+ p_basis*V_orbitals  =       -2837.530552

siesta: Electric dipole (a.u.)  =    0.999506   -0.140595    0.247665
siesta: Electric dipole (Debye) =    2.540491   -0.357357    0.629501

cite: Please see "optimization.bib" for an exhaustive BiBTeX file.
cite: Please clearly indicate Siesta version in published work: 5.2.1
cite: This calculation has made use of the following articles
cite: which are encouraged to be cited in a published work.
        Primary SIESTA paper
          DOI: www.doi.org/10.1088/0953-8984/14/11/302


timer: Elapsed wall time (sec) =    5158.946
timer: CPU execution times (sec):

Routine            Calls   Time/call    Tot.time        %
siesta                 1    6413.461    6413.461   100.00
Setup                  1       1.247       1.247     0.02
bands                  1       0.000       0.000     0.00
KSV_init               1       0.000       0.000     0.00
IterGeom             201      31.901    6412.201    99.98
geom_init            201       4.879     980.711    15.29
state_init           201       0.025       5.050     0.08
hsparse              201       0.001       0.220     0.00
overlap              201       0.023       4.634     0.07
Setup_H0             201       2.428     488.008     7.61
naefs                402       0.000       0.039     0.00
dnaefs               402       0.000       0.016     0.00
MolMec               402       0.000       0.000     0.00
kinefsm              402       0.016       6.298     0.10
nlefsm               402       0.039      15.711     0.24
DHSCF_Init           201       2.357     473.708     7.39
DHSCF1               201       0.038       7.548     0.12
InitMesh             201       0.038       7.543     0.12
INITMESH             201       0.000       0.001     0.00
DHSCF2               201       2.319     466.160     7.27
REMESH               201       0.118      23.707     0.37
REORD               6259       0.006      37.026     0.58
PHION                201       1.704     342.515     5.34
COMM_BSC            7091       0.004      31.410     0.49
POISON              1823       0.232     423.666     6.61
fft                 3646       0.089     325.351     5.07
setup_H             1421       3.254    4623.742    72.09
DHSCF               1622       3.555    5766.700    89.92
DHSCF3              1622       3.146    5103.209    79.57
rhoofd              1622       1.321    2142.838    33.41
XC                  1622       0.674    1093.859    17.06
GXC-CellXC          1622       0.650    1054.055    16.44
gridxc@cellXC       1622       0.650    1054.044    16.43
vmat                1622       0.584     946.793    14.76
IterSCF             1220       3.500    4270.046    66.58
compute_dm          1220       0.109     132.610     2.07
diagon              1220       0.108     131.488     2.05
r-eigvec            1220       0.051      61.621     0.96
r-buildHS           1220       0.000       0.122     0.00
rdiag               1220       0.050      61.482     0.96
rdiag1              1220       0.003       3.500     0.05
rdiag2              1220       0.006       7.479     0.12
rdiag3              1220       0.040      48.914     0.76
rdiag4              1220       0.001       1.449     0.02
r-buildD            1220       0.056      68.896     1.07
MIXER               1019       0.000       0.284     0.00
PostSCF              201       5.778    1161.314    18.11
FINAL_HF             201       5.778    1161.310    18.11
DHSCF4               201       3.301     663.477    10.35
dfscf                201       2.952     593.433     9.25
overfsm              201       0.008       1.699     0.03
writeHSX             201       0.001       0.107     0.00
state_analysis       201       0.000       0.031     0.00
siesta_move          201       0.000       0.066     0.00
Analysis               1       0.000       0.000     0.00
optical                1       0.000       0.000     0.00
  

>> End of run:  17-JUN-2025  19:13:48
Job completed
Job completed
