Executable      : siesta
Version         : 5.2.1
Architecture    : x86_64
Compiler version: GNU-13.3.0
Compiler flags  : -march=nocona -mtune=haswell -ftree-vectorize -fPIC -fstack-protector-strong -fno-plt -O2 -ffunction-sections -pipe -isystem <prefix>/include -I<prefix>/_build_env/include -fdebug-prefix-map=<prefix>/work=/usr/local/src/conda/siesta-5.2.1 -fdebug-prefix-map=<prefix>=/usr/local/src/conda-prefix -I<prefix>/lib -fallow-argument-mismatch -O3
Parallelisations: none
NetCDF support
NetCDF-4 support
Lua support
DFT-D3 support

Runtime information:
* Directory : /home/samba/homes/convidat/proyecto3/STM/run
* Running in serial mode.
>> Start of run:  19-JUN-2025  17:19:31

                           *********************** 
                           *  WELCOME TO SIESTA  * 
                           *********************** 

 NOTE: Siesta V5 introduces some new defaults for basis-set generation
 NOTE: which might lead to slightly different numerical results.
 NOTE: Please see the manual for full details and compatibility measures.


reinit: Reading from file stm.fdf

reinit: -----------------------------------------------------------------------
reinit: System Name: 
reinit: -----------------------------------------------------------------------
reinit: System Label: stm
reinit: -----------------------------------------------------------------------

initatom: Reading input for the pseudopotentials and atomic orbitals ----------
Species number:   1 Atomic number:    6 Label: C
Species number:   2 Atomic number:    7 Label: N
Species number:   3 Atomic number:    1 Label: H

Ground state valence configuration (from tables):   2s02  2p02  3d00  4f00
Ground state valence configuration (from tables):   2s02  2p03  3d00  4f00
Ground state valence configuration (from tables):   1s01  2p00  3d00  4f00

---- Processing specs for species: C
Reading pseudopotential information in PSML from:
  C.psml
PSML file version: 1.1
Using libxc ids:  101 130
GGA--PBE XC_GGA_X_PBE--XC_GGA_C_PBE pb
PSML uuid: 297821e0-be41-11e7-6802-e1ff7dfff095

---- Processing specs for species: N
Reading pseudopotential information in PSML from:
  N.psml
PSML file version: 1.1
Using libxc ids:  101 130
GGA--PBE XC_GGA_X_PBE--XC_GGA_C_PBE pb
PSML uuid: 31bde650-be41-11e7-78a7-66593edf4b14

---- Processing specs for species: H
Reading pseudopotential information in PSML from:
  H.psml
PSML file version: 1.1
Using libxc ids:  101 130
GGA--PBE XC_GGA_X_PBE--XC_GGA_C_PBE pb
PSML uuid: f95fa9b0-be40-11e7-634a-9594ffff953f

---- Pseudopotential check for C 

Pseudized shells:
2s( 2.00) rc: 1.20
2p( 2.00) rc: 1.26
Valence configuration for ps generation: 2s:2p: Total charge:   4.000000

---- Pseudopotential check for N 

Pseudized shells:
2s( 2.00) rc: 1.21
2p( 3.00) rc: 1.36
Valence configuration for ps generation: 2s:2p: Total charge:   5.000000

---- Pseudopotential check for H 

Pseudized shells:
1s( 1.00) rc: 1.01
2p( 0.00) rc: 0.71
Valence configuration for ps generation: 1s: Total charge:   1.000000
For C, standard SIESTA heuristics set lmxkb to 3
 (one more than the basis l, including polarization orbitals).
Use PS.lmax or PS.KBprojectors blocks to override.
For N, standard SIESTA heuristics set lmxkb to 3
 (one more than the basis l, including polarization orbitals).
Use PS.lmax or PS.KBprojectors blocks to override.
For H, standard SIESTA heuristics set lmxkb to 2
 (one more than the basis l, including polarization orbitals).
Use PS.lmax or PS.KBprojectors blocks to override.
C pseudopotential only contains V_ls up to l=1 -- lmxkb reset.
N pseudopotential only contains V_ls up to l=1 -- lmxkb reset.
H pseudopotential only contains V_ls up to l=1 -- lmxkb reset.

<basis_specs>
===============================================================================
C                    Z=   6    Mass=  12.011        Charge= 0.17977+309
Lmxo=2 Lmxkb= 1    BasisType=split      Semic=F
L=0  Nsemic=0  Cnfigmx=2
          i=1  nzeta=2  polorb=0  (2s)
            splnorm:   0.15000    
               vcte:    40.000    
               rinn:  -0.90000    
               qcoe:    0.0000    
               qyuk:    0.0000    
               qwid:   0.10000E-01
                rcs:    0.0000      0.0000    
            lambdas:    1.0000      1.0000    
L=1  Nsemic=0  Cnfigmx=2
          i=1  nzeta=2  polorb=1  (2p)  (to be polarized perturbatively)
            splnorm:   0.15000    
               vcte:    40.000    
               rinn:  -0.90000    
               qcoe:    0.0000    
               qyuk:    0.0000    
               qwid:   0.10000E-01
                rcs:    0.0000      0.0000    
            lambdas:    1.0000      1.0000    
L=2  Nsemic=0  Cnfigmx=3
          i=1  nzeta=0  polorb=0  (3d)  (perturbative polarization orbital) (from 2p)
-------------------------------------------------------------------------------
L=0  Nkbl=1  erefs: 0.17977+309
L=1  Nkbl=1  erefs: 0.17977+309
===============================================================================
</basis_specs>

Using PAO.SplitTailNorm
atom: Called for C                     (Z =   6)
NOTE: C pseudopotential has channels up to l= 1
NOTE: PAOs with higher l will be generated with V_local
Maximum radius (at nrval) set to   50.00000 8518

read_vps: Pseudopotential generation method:
read_vps: ONCVPSP-3.Hamann's oncvpsp                        
Valence charge in pseudo generation:    4.00000

read_vps: Pseudopotential includes a core correction:
read_vps: Pseudo-core for xc-correction

xc_check: Exchange-correlation functional:
xc_check: GGA Perdew, Burke & Ernzerhof 1996
Got Vlocal (oncv-fit) from psml data
Choosing vlocal chloc cutoff:  4.122282
qtot up to nchloc:    4.00001153
atom: Maximum radius for chlocal:    4.12228
atom: Maximum radius for r*vlocal+2*Zval:    4.12228
Reading KB projs from C psml data
Using scalar-relativistic projectors in PSML file

PSML: Kleinman-Bylander projectors: 
   l= 0   rc=  1.219773   Ekb= 12.963096
   l= 0   rc=  1.219773   Ekb=  0.771007
   l= 1   rc=  1.278952   Ekb= -8.399923
   l= 1   rc=  1.278952   Ekb= -1.755033

PSML: Total number of  Kleinman-Bylander projectors:   8
atom: -------------------------------------------------------------------------

atom: SANKEY-TYPE ORBITALS:
atom: Selected multiple-zeta basis: split     

SPLIT: Orbitals with angular momentum L= 0

SPLIT: Basis orbitals for state 2s

SPLIT: PAO cut-off radius determined from an
SPLIT: energy shift=  0.000735 Ry
Split based on tail norm

   izeta = 1
                 lambda =    1.000000
                     rc =    5.865727
                 energy =   -1.009782
                kinetic =    0.907850
    potential(screened) =   -1.917632
       potential(ionic) =   -5.443189

   izeta = 2
                 rmatch =    3.302919
              splitnorm =    0.150000
                 energy =   -0.812047
                kinetic =    1.580868
    potential(screened) =   -2.392915
       potential(ionic) =   -6.200698

SPLIT: Orbitals with angular momentum L= 1

SPLIT: Basis orbitals for state 2p

SPLIT: PAO cut-off radius determined from an
SPLIT: energy shift=  0.000735 Ry
Split based on tail norm

   izeta = 1
                 lambda =    1.000000
                     rc =    7.564822
                 energy =   -0.387582
                kinetic =    2.372253
    potential(screened) =   -2.759835
       potential(ionic) =   -6.120604

   izeta = 2
                 rmatch =    4.252389
              splitnorm =    0.150000
                 energy =   -0.314961
                kinetic =    3.225377
    potential(screened) =   -3.540338
       potential(ionic) =   -7.207912
*Note: V_local used for l= 2

** Using vlocal for PAOs with L= 2

POLgen: Perturbative polarization orbital with L=  2

POLgen: Polarization orbital for state 2p
*Note: V_local used for lpol= 2

** Using vlocal for PAOs with L= 2
Split based on tail norm

   izeta = 1
                     rc =    7.564822
                 energy =    0.923681
                kinetic =    1.875515
    potential(screened) =   -0.951834
       potential(ionic) =   -3.587740
atom: Total number of Sankey-type orbitals: 13

atm_pop: Valence configuration (for local Pseudopot. screening):
 2s( 2.00)                                                            
 2p( 2.00)                                                            
 3d( 0.00)                                                            
Vna: chval, zval:    4.00000   4.00000

Vna:  Cut-off radius for the neutral-atom potential:   7.564822
comcore: Pseudo-core radius Rcore=  1.671741

atom: _________________________________________________________________________

<basis_specs>
===============================================================================
N                    Z=   7    Mass=  14.007        Charge= 0.17977+309
Lmxo=2 Lmxkb= 1    BasisType=split      Semic=F
L=0  Nsemic=0  Cnfigmx=2
          i=1  nzeta=2  polorb=0  (2s)
            splnorm:   0.15000    
               vcte:    40.000    
               rinn:  -0.90000    
               qcoe:    0.0000    
               qyuk:    0.0000    
               qwid:   0.10000E-01
                rcs:    0.0000      0.0000    
            lambdas:    1.0000      1.0000    
L=1  Nsemic=0  Cnfigmx=2
          i=1  nzeta=2  polorb=1  (2p)  (to be polarized perturbatively)
            splnorm:   0.15000    
               vcte:    40.000    
               rinn:  -0.90000    
               qcoe:    0.0000    
               qyuk:    0.0000    
               qwid:   0.10000E-01
                rcs:    0.0000      0.0000    
            lambdas:    1.0000      1.0000    
L=2  Nsemic=0  Cnfigmx=3
          i=1  nzeta=0  polorb=0  (3d)  (perturbative polarization orbital) (from 2p)
-------------------------------------------------------------------------------
L=0  Nkbl=1  erefs: 0.17977+309
L=1  Nkbl=1  erefs: 0.17977+309
===============================================================================
</basis_specs>

Using PAO.SplitTailNorm
atom: Called for N                     (Z =   7)
NOTE: N pseudopotential has channels up to l= 1
NOTE: PAOs with higher l will be generated with V_local
Maximum radius (at nrval) set to   50.00000 8518

read_vps: Pseudopotential generation method:
read_vps: ONCVPSP-3.Hamann's oncvpsp                        
Valence charge in pseudo generation:    5.00000

read_vps: Pseudopotential includes a core correction:
read_vps: Pseudo-core for xc-correction

xc_check: Exchange-correlation functional:
xc_check: GGA Perdew, Burke & Ernzerhof 1996
Got Vlocal (oncv-fit) from psml data
Choosing vlocal chloc cutoff:  6.038618
qtot up to nchloc:    4.99995109
atom: Maximum radius for chlocal:    6.03862
atom: Maximum radius for r*vlocal+2*Zval:    6.03862
Reading KB projs from N psml data
Using scalar-relativistic projectors in PSML file

PSML: Kleinman-Bylander projectors: 
   l= 0   rc=  1.214864   Ekb= 14.989018
   l= 0   rc=  1.221004   Ekb=  1.272610
   l= 1   rc=  1.375180   Ekb= -8.587810
   l= 1   rc=  1.375180   Ekb= -2.013976

PSML: Total number of  Kleinman-Bylander projectors:   8
atom: -------------------------------------------------------------------------

atom: SANKEY-TYPE ORBITALS:
atom: Selected multiple-zeta basis: split     

SPLIT: Orbitals with angular momentum L= 0

SPLIT: Basis orbitals for state 2s

SPLIT: PAO cut-off radius determined from an
SPLIT: energy shift=  0.000735 Ry
Split based on tail norm

   izeta = 1
                 lambda =    1.000000
                     rc =    5.128853
                 energy =   -1.364951
                kinetic =    1.219328
    potential(screened) =   -2.584278
       potential(ionic) =   -8.061064

   izeta = 2
                 rmatch =    2.799004
              splitnorm =    0.150000
                 energy =   -1.108465
                kinetic =    2.068776
    potential(screened) =   -3.177241
       potential(ionic) =   -9.112461

SPLIT: Orbitals with angular momentum L= 1

SPLIT: Basis orbitals for state 2p

SPLIT: PAO cut-off radius determined from an
SPLIT: energy shift=  0.000735 Ry
Split based on tail norm

   izeta = 1
                 lambda =    1.000000
                     rc =    6.614864
                 energy =   -0.520217
                kinetic =    3.392575
    potential(screened) =   -3.912792
       potential(ionic) =   -9.170860

   izeta = 2
                 rmatch =    3.582433
              splitnorm =    0.150000
                 energy =   -0.423250
                kinetic =    4.550527
    potential(screened) =   -4.973778
       potential(ionic) =  -10.717060
*Note: V_local used for l= 2

** Using vlocal for PAOs with L= 2

POLgen: Perturbative polarization orbital with L=  2

POLgen: Polarization orbital for state 2p
*Note: V_local used for lpol= 2

** Using vlocal for PAOs with L= 2
Split based on tail norm

   izeta = 1
                     rc =    6.614864
                 energy =    1.365983
                kinetic =    2.607373
    potential(screened) =   -1.241390
       potential(ionic) =   -5.257349
atom: Total number of Sankey-type orbitals: 13

atm_pop: Valence configuration (for local Pseudopot. screening):
 2s( 2.00)                                                            
 2p( 3.00)                                                            
 3d( 0.00)                                                            
Vna: chval, zval:    5.00000   5.00000

Vna:  Cut-off radius for the neutral-atom potential:   6.614864
comcore: Pseudo-core radius Rcore=  1.572221

atom: _________________________________________________________________________

<basis_specs>
===============================================================================
H                    Z=   1    Mass=  1.0080        Charge= 0.17977+309
Lmxo=1 Lmxkb= 1    BasisType=split      Semic=F
L=0  Nsemic=0  Cnfigmx=1
          i=1  nzeta=2  polorb=1  (1s)  (to be polarized perturbatively)
            splnorm:   0.15000    
               vcte:    40.000    
               rinn:  -0.90000    
               qcoe:    0.0000    
               qyuk:    0.0000    
               qwid:   0.10000E-01
                rcs:    0.0000      0.0000    
            lambdas:    1.0000      1.0000    
L=1  Nsemic=0  Cnfigmx=2
          i=1  nzeta=0  polorb=0  (2p)  (perturbative polarization orbital) (from 1s)
-------------------------------------------------------------------------------
L=0  Nkbl=1  erefs: 0.17977+309
L=1  Nkbl=1  erefs: 0.17977+309
===============================================================================
</basis_specs>

Using PAO.SplitTailNorm
atom: Called for H                     (Z =   1)
Maximum radius (at nrval) set to   50.00000 8518

read_vps: Pseudopotential generation method:
read_vps: ONCVPSP-3.Hamann's oncvpsp                        
Valence charge in pseudo generation:    1.00000

xc_check: Exchange-correlation functional:
xc_check: GGA Perdew, Burke & Ernzerhof 1996
Got Vlocal (oncv-fit) from psml data
Choosing vlocal chloc cutoff:  1.926399
qtot up to nchloc:    0.99999831
atom: Maximum radius for chlocal:    1.92640
atom: Maximum radius for r*vlocal+2*Zval:    1.92640
Reading KB projs from H psml data
Using scalar-relativistic projectors in PSML file

PSML: Kleinman-Bylander projectors: 
   l= 0   rc=  1.022342   Ekb= -3.402247
   l= 0   rc=  1.022342   Ekb= -1.068968
   l= 1   rc=  0.714575   Ekb= -1.006642

PSML: Total number of  Kleinman-Bylander projectors:   5
atom: -------------------------------------------------------------------------

atom: SANKEY-TYPE ORBITALS:
atom: Selected multiple-zeta basis: split     

SPLIT: Orbitals with angular momentum L= 0

SPLIT: Basis orbitals for state 1s

SPLIT: PAO cut-off radius determined from an
SPLIT: energy shift=  0.000735 Ry
Split based on tail norm

   izeta = 1
                 lambda =    1.000000
                     rc =    7.238756
                 energy =   -0.476315
                kinetic =    0.887622
    potential(screened) =   -1.363936
       potential(ionic) =   -1.882865

   izeta = 2
                 rmatch =    4.044510
              splitnorm =    0.150000
                 energy =   -0.376652
                kinetic =    1.480380
    potential(screened) =   -1.857033
       potential(ionic) =   -2.405174

POLgen: Perturbative polarization orbital with L=  1

POLgen: Polarization orbital for state 1s
Split based on tail norm

   izeta = 1
                     rc =    7.238756
                 energy =    0.508786
                kinetic =    1.081322
    potential(screened) =   -0.572537
       potential(ionic) =   -1.035092
atom: Total number of Sankey-type orbitals:  5

atm_pop: Valence configuration (for local Pseudopot. screening):
 1s( 1.00)                                                            
 2p( 0.00)                                                            
Vna: chval, zval:    1.00000   1.00000

Vna:  Cut-off radius for the neutral-atom potential:   7.238756

atom: _________________________________________________________________________

prinput: Basis input 

PAO.BasisType split     

%block ChemicalSpeciesLabel
    1    6 C                       # Species index, atomic number, species label
    2    7 N                       # Species index, atomic number, species label
    3    1 H                       # Species index, atomic number, species label
%endblock ChemicalSpeciesLabel

%block PAO.Basis                 # Define Basis set
# WARNING: This information might be incomplete!
C                     2                    # Species label, number of l-shells
 n=2   0   2                         # n, l, Nzeta 
   5.866      3.303   
   1.000      1.000   
 n=2   1   2 P   1                   # n, l, Nzeta, Polarization, NzetaPol
   7.565      4.252   
   1.000      1.000   
N                     2                    # Species label, number of l-shells
 n=2   0   2                         # n, l, Nzeta 
   5.129      2.799   
   1.000      1.000   
 n=2   1   2 P   1                   # n, l, Nzeta, Polarization, NzetaPol
   6.615      3.582   
   1.000      1.000   
H                     1                    # Species label, number of l-shells
 n=1   0   2 P   1                   # n, l, Nzeta, Polarization, NzetaPol
   7.239      4.045   
   1.000      1.000   
%endblock PAO.Basis

prinput: ----------------------------------------------------------------------

Dumping basis to NetCDF file C.ion.nc
Dumping basis to NetCDF file N.ion.nc
Dumping basis to NetCDF file H.ion.nc
coor:   Atomic-coordinates input format  =     Cartesian coordinates
coor:                                          (in Angstroms)

siesta: Atomic coordinates (Bohr) and species
siesta:     19.01132  19.79324   9.40258  1        1
siesta:     21.17983  21.18750  10.03474  1        2
siesta:     23.18583  19.54894  10.55917  2        3
siesta:     23.73769  14.75561  10.56257  1        4
siesta:     22.40170  12.48072  10.11317  1        5
siesta:     19.78728  12.51503   9.39609  1        6
siesta:     18.45538  14.81377   9.11239  1        7
siesta:     19.75095  17.14496   9.54126  1        8
siesta:     22.38650  17.05908  10.26794  1        9
siesta:     16.42383  20.84792   8.74738  1       10
siesta:     21.45954  23.26771  10.17488  3       11
siesta:     24.98323  20.11017  11.03493  3       12
siesta:     16.41689  14.79617   8.55586  3       13
siesta:     18.78673  10.68510   9.06499  3       14
siesta:     23.39823  10.62931  10.32308  3       15
siesta:     25.77492  14.73820  11.12944  3       16
siesta:     12.17686  22.90912   5.32162  1       17
siesta:     16.56186  22.99658   6.76604  1       18
siesta:     14.59343  26.73613   5.03364  1       19
siesta:     14.18324  24.41823   6.49915  2       20
siesta:     11.80028  21.15950   6.45881  3       21
siesta:     10.38140  24.04467   5.26563  3       22
siesta:     12.64704  22.31379   3.30662  3       23
siesta:     16.09740  27.91669   5.96023  3       24
siesta:     15.19753  26.36515   3.00175  3       25
siesta:     12.80007  27.87452   4.97830  3       26
siesta:     15.20710  19.25771   8.03589  3       27
siesta:     15.45335  21.61004  10.48533  3       28
siesta:     18.04224  24.39188   7.38752  3       29
siesta:     17.24414  22.19338   4.88753  3       30

siesta: System type = molecule  

initatomlists: Number of atoms, orbitals, and projectors:     30   262   192

siesta: ******************** Simulation parameters ****************************
siesta:
siesta: The following are some of the parameters of the simulation.
siesta: A complete list of the parameters used, including default values,
siesta: can be found in file out.fdf
siesta:
redata: Spin configuration                          = none
redata: Number of spin components                   = 1
redata: Time-Reversal Symmetry                      = T
redata: Spin spiral                                 = F
redata: Long output                                 =   F
redata: Number of Atomic Species                    =        3
redata: Charge density info will appear in .RHO file
redata: Write Mulliken charges (when)               = none
redata: Write Mulliken Pop.                         = NO
redata: Write Hirshfeld charges (when)              = none
redata: Write Voronoi charges (when)                = none
redata: Write spin charge (when)                    = none
redata: Matel table size (NRTAB)                    =     1024
redata: Mesh Cutoff                                 =   300.0000 Ry
redata: Net charge of the system                    =     0.0000 |e|
redata: Min. number of SCF Iter                     =        0
redata: Max. number of SCF Iter                     =     1000
redata: SCF convergence failure will abort job
redata: SCF mix quantity                            = Hamiltonian
redata: Mix DM or H after convergence               =   F
redata: Recompute H after scf cycle                 =   F
redata: Mix DM in first SCF step                    =   T
redata: Write Pulay info on disk                    =   F
redata: New DM Occupancy tolerance                  = 0.000000000001
redata: No kicks to SCF
redata: DM Mixing Weight for Kicks                  =     0.5000
redata: Require Harris convergence for SCF          =   F
redata: Harris energy tolerance for SCF             =     0.000100 eV
redata: Require DM convergence for SCF              =   T
redata: DM tolerance for SCF                        =     0.000100
redata: Require EDM convergence for SCF             =   F
redata: EDM tolerance for SCF                       =     0.001000 eV
redata: Require H convergence for SCF               =   T
redata: Hamiltonian tolerance for SCF               =     0.001000 eV
redata: Require (free) Energy convergence for SCF   =   F
redata: (free) Energy tolerance for SCF             =     0.000100 eV
redata: Using DFT-D3 dispersion                     =   F
redata: Using Saved Data (generic)                  =   F
redata: Use continuation files for DM               =   T
redata: Neglect nonoverlap interactions             =   F
redata: Method of Calculation                       = Diagonalization
redata: Electronic Temperature                      =   299.9863 K
redata: Fix the spin of the system                  =   F
redata: Max. number of TDED Iter                    =        1
redata: Number of TDED substeps                     =        3
redata: Dynamics option                             = Single-point calculation
mix.SCF: Pulay mixing                            = Pulay
mix.SCF:    Variant                              = stable
mix.SCF:    History steps                        = 2
mix.SCF:    Linear mixing weight                 =     0.250000
mix.SCF:    Mixing weight                        =     0.250000
mix.SCF:    SVD condition                        = 0.1000E-07
redata: Save all siesta data in one NC              =   F
redata: ***********************************************************************

%block SCF.Mixers
  Pulay
%endblock SCF.Mixers

%block SCF.Mixer.Pulay
  # Mixing method
  method pulay
  variant stable

  # Mixing options
  weight 0.2500
  weight.linear 0.2500
  history 2
%endblock SCF.Mixer.Pulay

DM_history_depth set to one: no extrapolation allowed by default for geometry relaxation
Size of DM history Fstack: 1
Total number of electrons:    74.000000
Total ionic charge:    74.000000

siesta: k-grid: Number of k-points = 1
siesta: k-point is Gamma-only

diag: Algorithm                                     = D&C
diag: Used triangular part                          = Lower
diag: Absolute tolerance                            =  0.100E-15
diag: Orthogonalization factor                      =  0.100E-05
diag: Memory factor                                 =  1.0000


ts: **************************************************************
ts: Save H and S matrices                           =    F
ts: Save DM and EDM matrices                        =    F
ts: Only save the overlap matrix S                  =    F
ts: **************************************************************

************************ Begin: TS CHECKS AND WARNINGS ************************
************************ End: TS CHECKS AND WARNINGS **************************


                     ====================================
                        Single-point calculation
                     ====================================

outcell: Unit cell vectors (Ang):
       18.145896    0.000000    0.000000
        0.000000   19.148088    0.000000
        0.000000    0.000000   14.300988

outcell: Cell vector modules (Ang)   :   18.145896   19.148088   14.300988
outcell: Cell angles (23,13,12) (deg):     90.0000     90.0000     90.0000
outcell: Cell volume (Ang**3)        :   4969.0100
<dSpData1D:S at geom step 0
  <sparsity:sparsity for geom step 0
    nrows_g=262 nrows=262 sparsity=.8543 nnzs=58646, refcount: 7>
  <dData1D:(new from dSpData1D) n=58646, refcount: 1>
refcount: 1>
new_DM -- step:     1
Initializing Density Matrix...

Attempting to read DM from file... Failed...
DM filled with atomic data:
<dSpData2D:DM initialized from atoms
  <sparsity:sparsity for geom step 0
    nrows_g=262 nrows=262 sparsity=.8543 nnzs=58646, refcount: 8>
  <dData2D:DM n=58646 m=1, refcount: 1>
refcount: 1>
No. of atoms with KB's overlaping orbs in proc 0. Max # of overlaps:      30     178

InitMesh: MESH = 192 x 200 x 150 = 5760000
InitMesh: Mesh cutoff (required, used) =   300.000   301.517 Ry
New grid distribution [1]: sub = 2

stepf: Fermi-Dirac step function

siesta: Program's energy decomposition (eV):
siesta: Ebs     =      -656.252771
siesta: Eions   =      4783.810632
siesta: Ena     =      1349.920591
siesta: Ekin    =      2046.959817
siesta: Enl     =      -170.412360
siesta: Eso     =         0.000000
siesta: Edftu   =         0.000000
siesta: DEna    =      -206.817873
siesta: DUscf   =        28.957223
siesta: DUext   =         0.000000
siesta: Ex      =      -951.379930
siesta: Ec      =       -85.025489
siesta: Exc     =     -1036.405419
siesta: EbV     =         0.000000
siesta: eta*DQ  =         0.000000
siesta: Emadel  =         0.000000
siesta: Emeta   =         0.000000
siesta: Emolmec =         0.000000
siesta: Ekinion =         0.000000
siesta: Eharris =     -2755.248443
siesta: Etot    =     -2771.608652
siesta: FreeEng =     -2771.608652

        iscf     Eharris(eV)        E_KS(eV)     FreeEng(eV)     dDmax    Ef(eV) dHmax(eV)
   scf:    1    -2755.248443    -2771.608652    -2771.608652  1.965442 -6.841776 10.614124
timer: Routine,Calls,Time,% = IterSCF        1       4.124  27.69
   scf:    2    -2784.287088    -2778.796500    -2778.796500  0.166961 -5.130805  4.750678
   scf:    3    -2781.543142    -2780.793631    -2780.793631  0.160897 -3.156215  0.965003
   scf:    4    -2780.947638    -2780.876671    -2780.876671  0.016364 -3.081522  0.567257
   scf:    5    -2780.941672    -2780.913735    -2780.913735  0.017850 -2.984823  0.197020
   scf:    6    -2780.918765    -2780.916616    -2780.916616  0.007229 -2.932645  0.078991
   scf:    7    -2780.916990    -2780.916835    -2780.916835  0.002555 -2.912052  0.030509
   scf:    8    -2780.917104    -2780.916978    -2780.916978  0.000670 -2.911586  0.018528
   scf:    9    -2780.917104    -2780.917049    -2780.917049  0.000853 -2.911997  0.005376
   scf:   10    -2780.917060    -2780.917055    -2780.917055  0.000323 -2.912591  0.002499
   scf:   11    -2780.917056    -2780.917056    -2780.917056  0.000163 -2.912972  0.000817
   scf:   12    -2780.917056    -2780.917056    -2780.917056  0.000022 -2.912995  0.000537

SCF Convergence by DM+H criterion
max |DM_out - DM_in|         :     0.0000223861
max |H_out - H_in|      (eV) :     0.0005369803
SCF cycle converged after 12 iterations

Using DM_out to compute the final energy and forces
No. of atoms with KB's overlaping orbs in proc 0. Max # of overlaps:      30     178

siesta: E_KS(eV) =            -2780.9171

siesta: E_KS - E_eggbox =     -2780.9171

siesta: Atomic forces (eV/Ang):
----------------------------------------
   Tot    0.001488    0.000722    0.004461
----------------------------------------
   Max    0.046040
   Res    0.011075    sqrt( Sum f_i^2 / 3N )
----------------------------------------
   Max    0.046040    constrained

Stress tensor Voigt[x,y,z,yz,xz,xy] (kbar):        0.02        0.01        0.02       -0.02        0.01       -0.01
(Free)E + p*V (eV/cell)    -2780.9564
Target enthalpy (eV/cell)    -2780.9171

siesta: Program's energy decomposition (eV):
siesta: Ebs     =      -916.525607
siesta: Eions   =      4783.810632
siesta: Ena     =      1349.920591
siesta: Ekin    =      1918.725297
siesta: Enl     =      -151.652712
siesta: Eso     =         0.000000
siesta: Edftu   =         0.000000
siesta: DEna    =      -118.508005
siesta: DUscf   =        11.729560
siesta: DUext   =         0.000000
siesta: Ex      =      -923.924055
siesta: Ec      =       -83.397099
siesta: Exc     =     -1007.321154
siesta: EbV     =         0.000000
siesta: eta*DQ  =         0.000000
siesta: Emadel  =         0.000000
siesta: Emeta   =         0.000000
siesta: Emolmec =         0.000000
siesta: Ekinion =         0.000000
siesta: Eharris =     -2780.917056
siesta: Etot    =     -2780.917056
siesta: FreeEng =     -2780.917056

siesta: Final energy (eV):
siesta:  Band Struct. =    -916.525607
siesta:       Kinetic =    1918.725297
siesta:       Hartree =    7641.439870
siesta:         Edftu =       0.000000
siesta:       Eso     =       0.000000
siesta:    Ext. field =       0.000000
siesta:         Exch. =    -923.924055
siesta:         Corr. =     -83.397099
siesta:     Bulk bias =       0.000000
siesta:   Exch.-corr. =   -1007.321154
siesta:  Ion-electron =  -16985.812778
siesta:       Ion-ion =    5652.051709
siesta:       Ekinion =       0.000000
siesta: D3 dispersion =       0.000000
siesta:         Total =   -2780.917056
siesta:         Fermi =      -2.912995

siesta: Atomic forces (eV/Ang):
siesta:      1    0.005696    0.046040   -0.000093
siesta:      2   -0.006290   -0.031426    0.006285
siesta:      3   -0.016026    0.019216   -0.005162
siesta:      4    0.022281   -0.003436    0.009519
siesta:      5   -0.006048    0.006283    0.006143
siesta:      6    0.014432   -0.017894    0.016084
siesta:      7   -0.009178    0.007158   -0.006529
siesta:      8    0.011691   -0.001673   -0.013774
siesta:      9   -0.007981   -0.017680   -0.008930
siesta:     10    0.006240    0.005996   -0.021646
siesta:     11   -0.000183    0.003220    0.004416
siesta:     12    0.019869   -0.008121    0.006083
siesta:     13   -0.005848    0.006952    0.001329
siesta:     14    0.001347   -0.009487   -0.006272
siesta:     15   -0.006192    0.020492    0.001235
siesta:     16   -0.022022   -0.014184   -0.012776
siesta:     17   -0.007211   -0.010310    0.000148
siesta:     18    0.010841    0.011582   -0.001631
siesta:     19    0.004068    0.001363    0.017117
siesta:     20   -0.005776    0.010545   -0.006948
siesta:     21   -0.007634   -0.008490    0.010168
siesta:     22    0.007112   -0.008308   -0.006942
siesta:     23    0.005624   -0.011334    0.012869
siesta:     24   -0.005481    0.004881    0.003185
siesta:     25    0.007169   -0.006195   -0.001616
siesta:     26   -0.001505   -0.003762   -0.002544
siesta:     27    0.003193    0.006550   -0.007379
siesta:     28    0.000408    0.003295    0.005554
siesta:     29   -0.007615   -0.002690   -0.000687
siesta:     30   -0.003491    0.002139    0.007254
siesta: ----------------------------------------
siesta:    Tot    0.001488    0.000722    0.004461

siesta: Stress tensor (static) (eV/Ang**3):
siesta:     0.000010   -0.000004    0.000005
siesta:    -0.000004    0.000004   -0.000011
siesta:     0.000005   -0.000011    0.000010

siesta: Cell volume =       4969.010042 Ang**3

siesta: Pressure (static):
siesta:                Solid            Molecule  Units
siesta:          -0.00000009         -0.00000000  Ry/Bohr**3
siesta:          -0.00000791         -0.00000043  eV/Ang**3
siesta:          -0.01267796         -0.00068755  kBar
(Free)E+ p_basis*V_orbitals  =       -2778.675709
(Free)Eharris+ p_basis*V_orbitals  =       -2778.675709

siesta: Electric dipole (a.u.)  =    0.584846    0.586710    0.011706
siesta: Electric dipole (Debye) =    1.486530    1.491269    0.029755

cite: Please see "stm.bib" for an exhaustive BiBTeX file.
cite: Please clearly indicate Siesta version in published work: 5.2.1
cite: This calculation has made use of the following articles
cite: which are encouraged to be cited in a published work.
        Primary SIESTA paper
          DOI: www.doi.org/10.1088/0953-8984/14/11/302


timer: Elapsed wall time (sec) =      53.633
timer: CPU execution times (sec):

Routine            Calls   Time/call    Tot.time        %
siesta                 1      67.053      67.053   100.00
Setup                  1       1.162       1.162     1.73
bands                  1       0.000       0.000     0.00
KSV_init               1       0.000       0.000     0.00
IterGeom               1      65.883      65.883    98.25
geom_init              1       9.610       9.610    14.33
state_init             1       0.924       0.924     1.38
hsparse                1       0.002       0.002     0.00
overlap                1       0.920       0.920     1.37
Setup_H0               1       5.658       5.658     8.44
naefs                  2       0.000       0.001     0.00
dnaefs                 2       0.000       0.000     0.00
MolMec                 2       0.000       0.000     0.00
kinefsm                2       0.450       0.901     1.34
nlefsm                 2       0.997       1.993     2.97
DHSCF_Init             1       2.807       2.807     4.19
DHSCF1                 1       0.047       0.047     0.07
InitMesh               1       0.047       0.047     0.07
INITMESH               1       0.000       0.000     0.00
DHSCF2                 1       2.760       2.760     4.12
REMESH                 1       0.129       0.129     0.19
REORD                 43       0.007       0.299     0.45
PHION                  1       1.894       1.894     2.82
COMM_BSC              59       0.005       0.292     0.44
POISON                15       0.393       5.895     8.79
fft                   30       0.165       4.956     7.39
setup_H               13       3.907      50.792    75.75
DHSCF                 14       4.106      57.487    85.73
DHSCF3                14       3.839      53.748    80.16
rhoofd                14       1.540      21.566    32.16
XC                    14       0.735      10.284    15.34
GXC-CellXC            14       0.707       9.901    14.77
gridxc@cellXC         14       0.707       9.901    14.77
vmat                  14       0.756      10.581    15.78
IterSCF               12       4.121      49.453    73.75
compute_dm            12       0.139       1.673     2.49
diagon                12       0.138       1.660     2.48
r-eigvec              12       0.065       0.783     1.17
r-buildHS             12       0.000       0.002     0.00
rdiag                 12       0.065       0.782     1.17
rdiag1                12       0.004       0.046     0.07
rdiag2                12       0.008       0.095     0.14
rdiag3                12       0.052       0.619     0.92
rdiag4                12       0.002       0.020     0.03
r-buildD              12       0.072       0.864     1.29
MIXER                 11       0.000       0.004     0.01
PostSCF                1       6.819       6.819    10.17
FINAL_HF               1       6.819       6.819    10.17
DHSCF4                 1       3.740       3.740     5.58
dfscf                  1       3.340       3.340     4.98
overfsm                1       0.010       0.010     0.01
writeHSX               1       0.001       0.001     0.00
state_analysis         1       0.000       0.000     0.00
siesta_move            1       0.000       0.000     0.00
Analysis               1       0.001       0.001     0.00
optical                1       0.000       0.000     0.00
  

>> End of run:  19-JUN-2025  17:20:25
Job completed
Job completed
